ITEM: TIMESTEP
3
ITEM: NUMBER OF ATOMS
256
ITEM: BOX BOUNDS pp pp pp
0 60.9858
0 60.9858
0 60.9858
ITEM: ATOMS id x y z quatw quati quatj quatk shapex shapey shapez unit_x unit_y unit_z coord_num vx vy vz avx avy avz fx fy fz tx ty tz sxz cnsxz ctsxz lsxz
0 60.7432 31.2115 47.5586 0.678399 0.0238941 0.734305 0 1.4 1.4 11.2 0.996304 -0.0324195 -0.079549 0 0.00623631 -1.08904e-06 9.60355e-08 -1.28477e-08 0.000210447 1.70934e-06 1789.85 -0.837445 0.0745133 -0.0364731 221.102 0.314876 0.963555 0 0 0.963555
1 54.9204 27.5673 14.9652 0.691863 0.0543828 0.719977 0 1.4 1.4 11.2 0.996252 -0.0752509 -0.0426498 0 0.00195963 1.43729e-08 -4.2289e-07 -2.45004e-08 0.000187155 -1.57923e-07 562.432 0.0112811 -0.32661 -0.0700278 197.116 -0.0295354 0.450062 0 0 0.450062
2 32.8544 7.64293 52.1744 0.676893 0.0135772 0.735956 0 1.4 1.4 11.2 0.996327 -0.0183806 -0.0836316 0 0.00684321 1.67845e-07 2.90798e-08 -1.84941e-10 0.000213489 7.82009e-07 1964.11 0.129774 0.0225077 -0.000541673 225.076 0.143477 0.367594 0 0 0.367594
3 34.8119 46.9127 38.0289 0.678308 0.0314107 0.734106 0 1.4 1.4 11.2 0.9959 -0.0426123 -0.0797953 0 0.0049856 0 0 0 0.00021127 0 1430.93 0 0 0 223.162 0 0 0 0 0
4 27.5819 20.045 12.2045 0.709763 -0.055984 0.702212 0 1.4 1.4 11.2 0.996809 0.0794708 0.00752803 0 0.00159797 -1.3885e-07 -7.81705e-07 2.50727e-08 0.00016466 3.64178e-08 458.716 -0.107155 -0.603604 0.0716871 173.361 0.00687686 0.558177 0 0 0.558177
5 60.707 11.585 41.7303 0.739388 0.015603 0.673099 0 1.4 1.4 11.2 0.995362 -0.0230733 0.093388 0 0.00547295 2.23054e-07 -2.76924e-07 1.3613e-08 0.000219767 -3.06566e-06 1570.78 0.172387 -0.213671 0.038769 231.76 -0.561545 0.345857 0 0 0.345857
6 38.0343 23.1184 20.4428 0.671089 -0.00394744 0.741367 0 1.4 1.4 11.2 0.995045 0.00529817 -0.0992804 0 0.0026815 1.9367e-08 3.51338e-07 2.85842e-09 0.000223489 2.27328e-07 769.617 0.0149587 0.271354 0.00816766 235.595 0.0417586 0.398207 0 0 0.398207
7 28.359 29.2865 57.1806 0.694515 -0.0673856 0.716316 0 1.4 1.4 11.2 0.994984 0.0936006 -0.0352974 0 0.00748049 0 0 0 0.000182763 0 2147 0 0 0 193.051 0 0 0 0 0
8 18.7189 21.0463 19.9015 0.7187 0.0359152 0.694393 0 1.4 1.4 11.2 0.998119 -0.0516245 0.0330583 0 0.00260837 2.20606e-07 1.33423e-06 -5.75359e-08 0.000180323 2.56194e-06 748.614 0.169883 1.0274 -0.163911 188.668 0.469201 1.46404 0 0 1.46404
9 27.5438 59.1518 11.57 0.693322 0.0648897 0.7177 0 1.4 1.4 11.2 0.995195 -0.089979 -0.0386086 0 0.00151394 1.95922e-07 7.50011e-08 -9.11516e-11 0.000184893 -3.42254e-07 434.531 0.151644 0.0580483 -0.000261004 195.316 -0.063002 -0.0032931 0 0 -0.0032931
10 50.1055 32.4873 7.68318 0.729424 0.0522189 0.682066 0 1.4 1.4 11.2 0.99503 -0.0761794 0.0641176 0 0.00100599 -1.35121e-07 5.79499e-07 -7.35118e-09 0.000201106 -4.4517e-07 288.709 -0.104532 0.448287 -0.0210389 212.209 -0.0819054 0.208373 0 0 0.208373
11 19.1539 37.6002 12.4544 0.68884 -0.0596357 0.722456 0 1.4 1.4 11.2 0.995314 0.0821589 -0.0509986 0 0.00163031 1.49386e-08 2.04363e-10 5.8812e-10 0.000192822 1.75994e-07 467.919 0.0117529 0.000160774 0.00171183 203.676 0.0329313 0.000311027 0 0 0.000311027
12 18.4347 6.89395 59.1687 0.709445 -0.0236722 0.704363 0 1.4 1.4 11.2 0.999414 0.0335882 0.0066235 0 0.0079977 0.000249866 -0.00306498 7.88063e-05 -0.00214457 -0.002835 2293.99 70.2302 -861.149 81.4684 -2213.32 -188.669 1262.52 0 0 1262.52
13 19.632 21.5071 6.62483 0.676197 0.0117006 0.736628 0 1.4 1.4 11.2 0.996211 -0.0158238 -0.085514 0 0.000868932 -2.97294e-07 3.89087e-07 3.11404e-08 0.000215014 5.41253e-06 249.394 -0.228652 0.299032 0.0885358 227.262 0.989233 -0.0944658 0 0 -0.0944658
14 48.4498 14.2187 31.0978 0.727151 -0.0469977 0.684867 0 1.4 1.4 11.2 0.996003 0.0683488 0.0574965 0 0.00407337 -1.53048e-07 1.6134e-07 1.2996e-08 0.000196843 -8.88022e-07 1169.11 -0.118458 0.124493 0.0371022 207.669 -0.162338 0.203056 0 0 0.203056
15 41.4712 60.7788 59.5021 0.677928 0.0169754 0.734932 0 1.4 1.4 11.2 0.996462 -0.0230162 -0.0808273 0 0.00780381 0 0 0 0.00021193 0 2239.79 0 0 0 223.86 0 0 0 0 0
16 13.201 20.4016 45.8674 0.700803 -0.248583 0.668641 0 1.4 1.4 11.2 0.937172 0.348415 -0.0177495 0 0.00579363 -1.46746e-07 -2.03503e-07 4.90493e-08 0.000171393 9.4304e-07 1662.93 -0.112997 -0.156993 0.140032 180.809 0.172778 0.197794 0 0 0.197794
17 45.9422 9.22596 34.8766 0.689857 0.0491076 0.722278 0 1.4 1.4 11.2 0.996537 -0.0677544 -0.0481941 0 0.00456846 0 0 0 0.000191026 0 1311.2 0 0 0 201.779 0 0 0 0 0
18 39.7919 33.5368 60.5887 0.681973 0.0325771 0.730651 0 1.4 1.4 11.2 0.996569 -0.0444334 -0.0698256 0 0.00794325 4.30321e-05 -2.11141e-05 -6.59128e-07 0.00020137 -0.000111685 2279.81 12.8122 -6.28437 -0.722143 212.566 -7.87597 2.05695 0 0 2.05695
19 23.2538 30.4089 22.3862 0.731481 -0.0478862 0.680178 0 1.4 1.4 11.2 0.995075 0.0700557 0.0701288 0 0.00293189 -1.52474e-07 -6.17169e-08 -4.81056e-09 0.00020504 1.64584e-06 841.41 -0.117762 -0.0476642 -0.013745 216.514 0.302314 0.107806 0 0 0.107806
20 1.41322 28.5702 38.8074 0.729277 0.0185867 0.683966 0 1.4 1.4 11.2 0.997601 -0.0271097 0.0636907 0 0.00508933 0 0 0 0.000200953 0 1460.7 0 0 0 212.264 0 0 0 0 0
21 30.0135 32.7761 24.5505 0.722095 -0.0584621 0.689319 0 1.4 1.4 11.2 0.995508 0.0844304 0.0428426 0 0.00321335 0 0 0 0.000187597 0 922.273 0 0 0 198.157 0 0 0 0 0
22 5.37918 26.9568 59.8753 0.696219 0.0123638 0.717723 0 1.4 1.4 11.2 0.999385 -0.0172158 -0.0305592 0 0.00785331 0 0 0 0.000179729 0 2254 0 0 0 189.846 0 0 0 0 0
23 38.3213 56.2495 45.3315 0.705469 0.0468924 0.707188 0 1.4 1.4 11.2 0.997798 -0.0661623 -0.00462816 0 0.0059383 8.44151e-08 -1.61545e-07 -8.3683e-09 0.000162995 -9.73564e-07 1704.36 0.0642515 -0.124892 -0.0239222 171.95 -0.17617 0.184264 0 0 0.184264
24 14.7452 24.7096 48.7116 0.737801 0.00132687 0.675017 0 1.4 1.4 11.2 0.996056 -0.00195793 0.0887002 0 0.00638946 2.49619e-07 -5.30636e-07 1.51688e-08 0.000216594 -2.78157e-06 1833.77 0.193031 -0.40996 0.0432638 228.102 -0.510039 0.686361 0 0 0.686361
25 14.8616 38.0764 7.36257 0.674961 0.0227355 0.737503 0 1.4 1.4 11.2 0.995572 -0.0306912 -0.0888561 0 0.000965492 0 0 0 0.000217074 0 277.108 0 0 0 229.293 0 0 0 0 0
26 16.1716 43.2275 51.6108 0.72471 0.0588379 0.686537 0 1.4 1.4 11.2 0.995081 -0.0852809 0.0504102 0 0.00675491 0 0 0 0.000192445 0 1938.75 0 0 0 203.278 0 0 0 0 0
27 41.7114 12.1378 3.11225 0.680245 -0.0351573 0.732142 0 1.4 1.4 11.2 0.996071 0.0478311 -0.0745347 0 0.000407947 -5.45155e-09 -4.88884e-07 1.797e-08 0.000207531 5.80625e-08 117.081 -0.00420853 -0.377393 0.0513212 218.55 0.0106602 0.515342 0 0 0.515342
28 44.5384 17.5063 32.2715 0.697436 0.0566236 0.714407 0 1.4 1.4 11.2 0.996506 -0.0789827 -0.0271664 0 0.00422508 -4.30427e-08 3.13056e-08 -2.75087e-09 0.000177531 -5.09888e-07 1212.65 -0.0334612 0.0243356 -0.00791148 187.482 -0.0942717 0.0378905 0 0 0.0378905
29 30.8298 20.6275 43.916 0.702635 -0.0535788 0.709531 0 1.4 1.4 11.2 0.997082 0.0752927 -0.0126091 0 0.00575062 1.56836e-07 7.49875e-08 5.75828e-09 0.000168173 1.84158e-06 1650.5 0.119738 0.0581769 0.0164593 177.537 0.334355 0.0846045 0 0 0.0846045
30 50.4978 38.2944 31.518 0.709957 -0.05021 0.702453 0 1.4 1.4 11.2 0.997423 0.0712938 0.00807898 0 0.00412789 0 0 0 0.000165327 0 1184.76 0 0 0 174.634 0 0 0 0 0
31 19.4091 56.5652 45.828 0.691061 -0.0460646 0.721328 0 1.4 1.4 11.2 0.996962 0.0636668 -0.0448707 0 0.00600396 0 0 0 0.000188896 0 1723.21 0 0 0 199.529 0 0 0 0 0
32 11.5149 11.9653 48.7761 0.733962 -0.0420008 0.67789 0 1.4 1.4 11.2 0.995092 0.061654 0.0774017 0 0.00639068 -3.80552e-09 4.64707e-09 4.38886e-10 0.000209733 -4.46844e-08 1834.21 -0.00290057 0.0035418 0.0012375 221.532 -0.00809976 0.00516138 0 0 0.00516138
33 49.2576 51.7741 22.4866 0.695134 0.0418434 0.717661 0 1.4 1.4 11.2 0.997742 -0.0581735 -0.0335776 0 0.00294659 0 0 0 0.000181662 0 845.708 0 0 0 191.888 0 0 0 0 0
34 49.7808 1.65243 23.9428 0.714713 -0.0661688 0.696281 0 1.4 1.4 11.2 0.995282 0.0945834 0.0216297 0 0.00313206 -9.58008e-08 1.60051e-08 2.70855e-09 0.000173996 -1.11137e-06 898.937 -0.0737128 0.0123143 0.00770984 183.769 -0.20337 0.0187111 0 0 0.0187111
35 7.64206 4.1337 12.2459 0.693685 -0.0366227 0.719347 0 1.4 1.4 11.2 0.998 0.0508093 -0.0376028 0 0.00160487 -1.1102e-07 1.49865e-07 2.59848e-09 0.000184133 -1.18562e-06 460.523 -0.0857695 0.115773 0.00742657 194.304 -0.217838 0.293055 0 0 0.293055
36 25.2458 27.3878 47.6001 0.692261 -0.0517002 0.719793 0 1.4 1.4 11.2 0.996569 0.0715801 -0.0415503 0 0.00623408 0 0 0 0.000186769 0 1789.26 0 0 0 197.283 0 0 0 0 0
37 30.0128 9.03554 53.8648 0.724806 -0.141564 0.674251 0 1.4 1.4 11.2 0.977404 0.205214 0.050689 0 0.00697472 1.87208e-08 1.54361e-07 1.04932e-08 0.000192578 -2.32828e-07 2001.83 0.0152177 0.119661 0.0299791 203.335 -0.0449824 0.0846318 0 0 0.0846318
38 56.0352 53.726 34.3744 0.721004 0.116194 0.68312 0 1.4 1.4 11.2 0.985064 -0.167553 0.0396925 0 0.00447042 2.97934e-07 -4.16324e-07 -8.71993e-10 0.000185575 4.93988e-08 1283.11 0.22841 -0.320692 -0.0024919 196.013 0.00907935 0.0454341 0 0 0.0454341
39 55.0216 49.1056 46.8468 0.719619 0.45286 0.52637 0 1.4 1.4 11.2 0.757573 -0.651774 0.035704 0 0.00534808 -2.92691e-07 -6.91822e-07 -3.42596e-07 0.000182635 2.56635e-06 1535.22 -0.225473 -0.534069 -0.978341 192.215 0.469822 0.581411 0 0 0.581411
40 11.6658 53.924 13.9978 0.672442 -0.128731 0.728869 0 1.4 1.4 11.2 0.980244 0.173128 -0.0956438 0 0.00181946 -4.69615e-08 1.31396e-06 -1.17965e-08 0.000221481 -2.31149e-07 522.28 -0.0362233 1.01445 -0.03366 234.053 -0.0425283 0.0570457 0 0 0.0570457
41 13.4448 37.1647 47.542 0.681747 -0.0500446 0.729875 0 1.4 1.4 11.2 0.995179 0.0682355 -0.0704431 0 0.00622737 -4.33469e-07 -2.59213e-07 -5.77044e-09 0.00020531 -7.86462e-07 1787.34 -0.334177 -0.200054 -0.0163895 216.924 -0.143192 -0.0512249 0 0 -0.0512249
42 26.0096 59.0926 15.3914 0.723593 0.0535717 0.688145 0 1.4 1.4 11.2 0.995874 -0.0775282 0.0471724 0 0.00201521 -2.16663e-07 1.22734e-07 1.67995e-10 0.000190334 -1.00019e-06 578.381 -0.166962 0.0947025 0.000459569 200.981 -0.183116 0.0670637 0 0 0.0670637
43 56.6446 19.2788 52.11 0.73355 0.128797 0.66732 0 1.4 1.4 11.2 0.979025 -0.188958 0.07619 0 0.00676085 1.78227e-07 5.35474e-07 -2.38067e-08 0.000208941 4.0025e-06 1940.44 0.136902 0.411902 -0.0677873 220.667 0.732837 0.0631313 0 0 0.0631313
44 44.4182 13.3021 37.95 0.693564 -0.146609 0.705319 0 1.4 1.4 11.2 0.978368 0.203366 -0.0379374 0 0.00491536 -1.27304e-07 8.23546e-08 5.05107e-08 0.000184196 -1.3281e-06 1410.88 -0.0982539 0.0634561 0.144278 194.098 -0.243723 0.532813 0 0 0.532813
45 45.3716 25.2893 21.3878 0.7289 -0.0534853 0.682527 0 1.4 1.4 11.2 0.994989 0.077971 0.062592 0 0.00280029 -1.37474e-07 2.44967e-07 2.84225e-09 0.000200224 -2.17797e-07 803.716 -0.106242 0.189305 0.00812604 211.449 -0.0400303 0.0402638 0 0 0.0402638
46 20.7675 17.085 26.5475 0.678164 -0.0243222 0.734508 0 1.4 1.4 11.2 0.996234 0.0329889 -0.0801863 0 0.00348116 -6.3338e-08 -1.95753e-08 4.32382e-09 0.000211505 7.40031e-07 999.133 -0.0487332 -0.0150607 0.0123073 223.384 0.135415 0.0217505 0 0 0.0217505
47 24.3097 5.65259 39.4716 0.692355 0.0537946 0.719549 0 1.4 1.4 11.2 0.996367 -0.07449 -0.0412886 0 0.00516883 0 0 0 0.000186602 0 1483.52 0 0 0 197.106 0 0 0 0 0
48 47.5941 24.6876 38.8119 0.731017 0.0364401 0.681386 0 1.4 1.4 11.2 0.996209 -0.0532766 0.0687709 0 0.0050867 3.14522e-07 2.63106e-07 2.69248e-08 0.000204403 -3.70571e-06 1459.96 0.241 0.201593 0.0763219 216.258 -0.675291 -0.303767 0 0 -0.303767
49 11.1261 19.0279 44.1557 0.692497 0.0289924 0.720838 0 1.4 1.4 11.2 0.998356 -0.0401543 -0.0408968 0 0.00578919 3.58039e-08 1.66764e-07 8.98112e-10 0.000186379 -9.63729e-08 1661.57 0.0276391 0.128728 0.00256485 196.922 -0.0176932 -0.0352782 0 0 -0.0352782
50 55.15 45.1086 26.7871 0.733854 -0.0156707 0.679127 0 1.4 1.4 11.2 0.996759 0.023 0.0770821 0 0.00351317 -7.82296e-08 -1.53778e-08 -2.603e-09 0.000209524 5.56978e-07 1008.33 -0.0602646 -0.0118457 -0.00741824 221.305 0.102044 0.00947515 0 0 0.00947515
51 47.6622 51.8668 52.943 0.722052 0.00678179 0.691805 0 1.4 1.4 11.2 0.999039 -0.00979361 0.0427193 0 0.00694446 -9.35189e-08 -3.75357e-07 2.64523e-09 0.000187263 -1.8749e-06 1993.13 -0.0726725 -0.289269 0.00760648 197.348 -0.344336 0.385895 0 0 0.385895
52 60.889 20.0539 38.6222 0.729736 -0.00799502 0.683683 0 1.4 1.4 11.2 0.997815 0.0116685 0.0650286 0 0.00506593 3.48432e-07 -7.29566e-07 2.35438e-08 0.000201262 -4.09357e-06 1453.96 0.268983 -0.56318 0.0672388 211.606 -0.751565 0.830431 0 0 0.830431
53 44.2838 23.1037 2.48847 0.728883 -0.0475702 0.682983 0 1.4 1.4 11.2 0.99563 0.0693463 0.0625422 0 0.000325821 1.40507e-06 -1.40572e-06 1.38227e-07 0.000199161 -1.6029e-05 93.4564 1.07753 -1.07692 0.391638 208.495 -2.91787 1.56581 0 0 1.56581
54 41.9019 42.7212 30.2499 0.697003 -0.0671552 0.713917 0 1.4 1.4 11.2 0.995204 0.0936147 -0.0283739 0 0.00395735 0 0 0 0.000178329 0 1135.81 0 0 0 188.367 0 0 0 0 0
55 43.323 19.5561 58.8458 0.684198 0.112534 0.720562 0 1.4 1.4 11.2 0.986014 -0.153992 -0.0637473 0 0.00766203 -8.10736e-06 2.99506e-06 2.73286e-07 0.000201764 3.66781e-05 2198.6 -6.22091 2.29652 0.77537 214.498 6.69354 -0.880157 0 0 -0.880157
56 58.8399 37.3637 1.65502 0.683845 0.046443 0.728147 0 1.4 1.4 11.2 0.99588 -0.0635196 -0.0647113 0 0.000216841 -2.01421e-07 1.03726e-07 -1.48213e-08 0.000201528 -2.34695e-06 62.2431 -0.153386 0.0789853 -0.0417533 212.733 -0.425042 0.116539 0 0 0.116539
57 15.2906 55.6648 37.0743 0.735669 0.0177427 0.677109 0 1.4 1.4 11.2 0.996256 -0.0261055 0.0824177 0 0.00486213 -3.58044e-08 -2.97581e-08 -2.81563e-09 0.000212927 4.19994e-07 1395.49 -0.0275224 -0.0228734 -0.00800677 224.873 0.0767798 0.033422 0 0 0.033422
58 20.7012 0.980054 5.62086 0.680752 -0.0182113 0.732288 0 1.4 1.4 11.2 0.997012 0.0247948 -0.0731536 0 0.000736934 9.10019e-08 -2.07033e-07 7.11811e-09 0.000206727 -9.3639e-09 211.397 0.0703091 -0.159648 0.0203387 217.845 -0.00155605 0.581104 0 0 0.581104
59 43.7439 20.0994 10.2396 0.70504 0.00497148 0.70915 0 1.4 1.4 11.2 0.999958 -0.00701019 -0.0058378 0 0.00134308 -1.91632e-07 1.62459e-07 1.88365e-09 0.000164003 2.94041e-06 385.45 -0.147079 0.124911 0.00535816 173.434 0.538047 -0.156522 0 0 -0.156522
60 17.6315 24.8353 35.4768 0.679882 0.0477935 0.731762 0 1.4 1.4 11.2 0.995024 -0.0649879 -0.0755203 0 0.00464756 -1.63657e-07 -3.74082e-07 -6.28594e-09 0.000208333 1.3536e-06 1333.89 -0.126371 -0.288839 -0.0179564 219.705 0.248577 0.302513 0 0 0.302513
61 26.3826 46.6149 33.0248 0.737959 0.014573 0.674689 0 1.4 1.4 11.2 0.995785 -0.0215085 0.0891661 0 0.00433135 0 0 0 0.000217272 0 1243.15 0 0 0 229.502 0 0 0 0 0
62 9.56689 33.9112 10.6269 0.69299 -0.0124906 0.720839 0 1.4 1.4 11.2 0.999068 0.0173118 -0.039531 0 0.00139387 -1.49803e-08 6.24575e-07 7.72011e-09 0.000185003 -1.82998e-07 400.073 -0.0117097 0.481841 0.0220176 194.568 -0.0340045 0.693853 0 0 0.693853
63 17.4686 9.99493 30.003 0.712283 0.0689783 0.698494 0 1.4 1.4 11.2 0.995052 -0.0982641 0.0146954 0 0.00392399 0 0 0 0.000169566 0 1126.24 0 0 0 179.111 0 0 0 0 0
64 13.2585 54.3902 20.4583 0.707482 0.0208742 0.706423 0 2 2 16 0.999563 -0.0295363 0.00106211 0 0.00262925 3.78976e-07 1.34762e-06 7.87745e-09 0.000157892 -1.53249e-06 1100.07 0.426306 1.51651 0.0669468 497.644 -0.836444 -1.12727 0 0 -1.12727
65 49.5546 42.8335 25.8801 0.738214 -0.020102 0.674267 0 2 2 16 0.995507 0.0296792 0.0899209 0 0.00332602 5.36657e-08 1.05492e-08 -2.3859e-09 0.000213414 4.40101e-07 1391.59 0.0602649 0.0118458 -0.0202287 670.702 0.239877 0.022632 0 0 0.022632
66 12.5352 42.742 37.8029 0.687081 0.0550631 0.724491 0 2 2 16 0.995569 -0.0756657 -0.0558385 0 0.00485109 9.74395e-07 -7.01659e-07 3.61878e-08 0.000192213 5.99597e-06 2029.66 1.08318 -0.782014 0.30401 605.112 3.23309 -0.790692 0 0 -0.790692
67 31.9095 43.0403 25.4548 0.693482 0.0713594 0.716931 0 2 2 16 0.994358 -0.0989729 -0.0381643 0 0.00326242 -2.54996e-09 -1.01639e-06 -5.31391e-08 0.000180389 5.71739e-08 1364.95 -0.00287134 -1.14443 -0.451769 564.07 0.0312478 2.33687 0 0 2.33687
68 12.9476 14.0185 54.1804 0.729231 -0.0953418 0.677593 0 2 2 16 0.988243 0.139052 0.0635563 0 0.00692381 -3.77504e-07 -9.4726e-08 7.1861e-10 0.000196934 -2.47394e-06 2896.89 -0.42348 -0.104802 0.00644144 619.295 -1.3438 -0.311795 0 0 -0.311795
69 38.3514 9.39584 54.1211 0.719682 -0.300717 0.625801 0 2 2 16 0.900756 0.432842 0.0358838 0 0.00655897 5.36491e-07 -5.11061e-07 1.30798e-08 0.00017944 4.69821e-06 2744.12 0.603158 -0.575192 0.11192 563.676 2.55802 0.2759 0 0 0.2759
70 6.92621 13.6164 0.869678 0.737743 -0.136999 0.661035 0 2 2 16 0.975347 0.202139 0.0885282 0 -1.41185e-05 0.000503685 0.000222038 4.03507e-08 0.000185545 0.000953129 -5.30531 208.4 91.7715 0.138721 583.958 190.831 74.6985 0 0 74.6985
71 5.30268 21.9349 0.773208 0.696407 -0.0538037 0.715627 0 2 2 16 0.996736 0.0749386 -0.0300343 0 9.93028e-05 4.44066e-08 -3.32673e-08 6.13022e-10 0.000175803 -3.16842e-07 41.6022 0.0500178 -0.0374689 0.0052132 552.44 -0.173216 0.115644 0 0 0.115644
72 37.8585 22.7797 51.4721 0.704174 0.0605236 0.707443 0 2 2 16 0.996326 -0.0852383 -0.00827784 0 0.00660211 -7.3758e-08 -2.6029e-07 -1.14086e-08 0.000162023 6.15445e-07 2762.29 -0.0830574 -0.293093 -0.0969953 508.481 0.336378 0.618233 0 0 0.618233
73 29.9598 36.4898 11.029 0.68724 0.0606064 0.723898 0 2 2 16 0.994983 -0.0833023 -0.0554035 0 0.00141483 2.21998e-07 1.14889e-07 -1.25103e-09 0.000191793 -1.40184e-06 591.995 0.249197 0.128935 -0.0106105 603.019 -0.763798 -0.145608 0 0 -0.145608
74 41.078 30.1016 22.541 0.678855 0.0159297 0.7341 0 2 2 16 0.996694 -0.021628 -0.0783116 0 0.00289726 0 0 0 0.00020613 0 1212.2 0 0 0 647.841 0 0 0 0 0
75 21.8951 2.49332 7.97233 0.679924 0.0288435 0.732715 0 2 2 16 0.996381 -0.0392228 -0.0754058 0 0.00102438 -2.56756e-07 9.10511e-08 4.72869e-09 0.000204324 8.29565e-07 428.601 -0.288176 0.102787 0.0399928 642.259 0.449805 -0.070463 0 0 -0.070463
76 60.9707 37.1847 30.4642 0.68026 0.0312704 0.732303 0 2 2 16 0.996314 -0.042544 -0.0744923 0 0.00391404 0 0 0 0.000203733 0 1637.62 0 0 0 640.305 0 0 0 0 0
77 45.4711 59.1702 29.3822 0.665836 0.0406107 0.744992 0 2 2 16 0.992085 -0.0540801 -0.113325 0 0.00377383 2.62528e-07 5.57051e-07 -1.06201e-09 0.000227847 1.83537e-06 1579.01 0.294661 0.627294 -0.00931854 714.666 1.0006 1.1886 0 0 1.1886
78 30.8339 42.0275 5.9455 0.72888 -0.000440605 0.684641 0 2 2 16 0.998043 0.000642297 0.062533 0 0.000764238 9.65269e-08 1.95959e-07 -3.12491e-09 0.000196118 7.93042e-07 319.709 0.10871 0.22068 -0.0265711 615.81 0.433497 0.543862 0 0 0.543862
79 14.1869 46.0813 30.4746 0.734156 0.0416988 0.677699 0 2 2 16 0.995074 -0.0612268 0.0779713 0 0.00391306 6.72937e-09 -1.53687e-07 -4.69818e-09 0.000205836 -5.45539e-08 1637.21 0.00629385 -0.176098 -0.0410902 646.471 -0.0246807 0.353215 0 0 0.353215
80 31.8773 24.7337 55.9319 0.71885 0.0124527 0.695053 0 2 2 16 0.999279 -0.0179033 0.0334918 0 0.00719962 1.77878e-05 0.00023226 -2.50795e-06 5.5763e-05 0.000147794 3012.28 7.38517 97.0749 -7.87016 175.682 29.7684 203.514 0 0 203.514
81 43.2743 14.1276 48.8117 0.719944 0.103622 0.686253 0 2 2 16 0.988128 -0.149203 0.0366374 0 0.00623237 6.25697e-07 -4.38053e-06 -1.61098e-07 0.000178862 -2.33126e-06 2607.76 0.703267 -4.91599 -1.36581 556.251 -1.26853 4.80717 0 0 4.80717
82 30.8524 35.3445 33.8244 0.729421 -0.0490923 0.682301 0 2 2 16 0.99537 0.071618 0.0641106 0 0.00434136 1.56703e-08 -6.56505e-10 5.16021e-10 0.000197214 -1.19701e-07 1816.4 0.0180026 -0.000754181 0.00447609 619.817 -0.0667486 0.00145438 0 0 0.00145438
83 21.9818 3.6679 51.2902 0.675221 -0.00596901 0.737592 0 2 2 16 0.996074 0.0080608 -0.0881536 0 0.0065933 -2.36566e-08 1.24703e-07 5.71108e-10 0.000212376 1.94354e-07 2758.61 -0.0266343 0.140392 0.00485464 667.824 0.106206 -0.267415 0 0 -0.267415
84 18.779 8.7113 13.2338 0.690609 -0.245653 0.680231 0 2 2 16 0.939547 0.3393 -0.0461183 0 0.00164139 1.50725e-07 3.02297e-07 -5.78687e-08 0.000186067 -1.22862e-06 686.754 0.169518 0.339933 -0.491336 585.585 -0.670682 -0.614081 0 0 -0.614081
85 7.47256 21.6691 46.257 0.724986 -0.00948529 0.688698 0 2 2 16 0.998593 0.0137534 0.0512096 0 0.00594602 1.61195e-07 1.01868e-08 -4.04697e-09 0.000189107 1.25718e-06 2487.77 0.177585 0.0119904 -0.0336501 594.301 0.672845 0.0344643 0 0 0.0344643
86 52.1738 41.8999 41.3836 0.683094 0.0138396 0.730199 0 2 2 16 0.99759 -0.0189076 -0.0667648 0 0.00531937 -5.31385e-07 6.46554e-07 1.83399e-08 0.00019913 3.16799e-06 2225.62 -0.569214 0.692541 0.148305 627.069 1.64693 -0.973956 0 0 -0.973956
87 14.2232 28.1466 47.2857 0.67864 0.197863 0.707318 0 2 2 16 0.960028 -0.268555 -0.0788959 0 0.00594468 -1.71725e-07 -2.88342e-07 -2.81581e-08 0.00020639 3.65383e-07 2487.2 -0.194386 -0.325304 -0.240261 648.076 0.199774 0.49551 0 0 0.49551
88 7.10595 19.6559 57.1869 0.700855 -0.0403895 0.712159 0 2 2 16 0.998241 0.0566144 -0.0176032 0 0.0073442 -7.15367e-07 4.7111e-07 1.29221e-08 0.000167705 -4.09047e-06 3072.73 -0.796755 0.523233 0.108719 525.446 -2.203 1.3267 0 0 1.3267
89 56.5853 5.67756 40.6104 0.723647 -0.0450727 0.688696 0 2 2 16 0.996747 0.0652335 0.0473313 0 0.00521374 2.75984e-07 -7.64175e-07 3.88046e-09 0.000186595 5.40091e-07 2181.41 0.310594 -0.860229 0.0329915 585.991 0.294745 0.329234 0 0 0.329234
90 57.5039 20.3972 53.4336 0.681728 0.017723 0.731391 0 2 2 16 0.997219 -0.0241645 -0.0704938 0 0.00686773 -2.62388e-07 -7.92805e-08 9.16231e-09 0.000201164 2.32411e-06 2873.42 -0.294942 -0.0947132 0.0787187 631.909 1.28766 0.387089 0 0 0.387089
91 24.1055 11.9998 0.00810422 0.691142 0.0378321 0.721728 0 2 2 16 0.997633 -0.0522947 -0.0446457 0 1.04007e-06 0 0 0 0.000184993 0 0.435149 0 0 0 581.41 0 0 0 0 0
92 7.06174 8.43796 24.9033 0.707547 -0.0548149 0.704537 0 2 2 16 0.996986 0.0775683 0.0012458 0 0.00319535 -1.47663e-07 -7.04328e-08 2.7915e-09 0.000157708 1.13464e-06 1336.84 -0.166198 -0.0792694 0.0237214 495.457 0.619839 0.214412 0 0 0.214412
93 23.7384 1.92117 27.6759 0.689897 0.0435462 0.722596 0 2 2 16 0.997034 -0.0600848 -0.0480837 0 0.00355386 0 0 0 0.000187152 0 1486.92 0 0 0 588.195 0 0 0 0 0
94 5.5296 54.6219 11.332 0.69713 0.0395559 0.715853 0 2 2 16 0.998085 -0.0551513 -0.0280196 0 0.00145532 -1.17058e-07 3.4443e-08 -6.82738e-09 0.000174419 3.82737e-07 608.848 -0.131862 0.0388524 -0.0580744 547.446 0.209174 0.736286 0 0 0.736286
95 35.8886 30.1519 32.1641 0.72712 0.0445909 0.685061 0 2 2 16 0.996243 -0.0648458 0.0574058 0 0.00412957 -6.20949e-07 -1.29329e-06 -6.319e-08 0.000192319 5.01346e-06 1727.89 -0.693827 -1.445 -0.533072 600.805 2.71891 3.0104 0 0 3.0104
96 52.8379 27.7947 25.4648 0.729776 -0.0116821 0.683587 0 2 2 16 0.99773 0.0170506 0.0651449 0 0.00327327 -3.1197e-07 1.8027e-07 1.23705e-08 0.00019777 -2.56545e-06 1369.54 -0.348159 0.201664 0.104264 621.066 -1.3896 0.42126 0 0 0.42126
97 60.6711 17.4274 48.6183 0.716242 -0.0572676 0.695499 0 2 2 16 0.99629 0.0820349 0.0260042 0 0.00623714 9.87905e-08 -1.13409e-07 6.27756e-09 0.000173229 -7.87953e-07 2609.62 0.111061 -0.127489 0.0532827 544.114 -0.429946 0.298892 0 0 0.298892
98 54.4805 13.0214 33.8268 0.719307 -0.0476867 0.693053 0 2 2 16 0.997037 0.0686028 0.0348058 0 0.00434225 -5.88427e-08 -3.96227e-07 8.74195e-09 0.000178685 9.74972e-08 1816.79 -0.0662674 -0.446069 0.0743057 560.888 0.0533308 0.521811 0 0 0.521811
99 27.9281 51.264 18.9549 0.736535 -0.098026 0.669258 0 2 2 16 0.985865 0.144399 0.0849691 0 0.00242108 5.87658e-07 -2.23725e-07 3.88357e-08 0.000210142 -2.56154e-06 1012.92 0.661353 -0.251053 0.329442 659.55 -1.39519 0.799239 0 0 0.799239
100 51.9231 58.5868 38.1121 0.682556 0.0548742 0.72877 0 2 2 16 0.994853 -0.0749094 -0.0682352 0 0.00489105 8.00124e-07 -5.0025e-07 -8.52508e-08 0.000199179 -8.6657e-06 2046.45 0.885611 -0.54991 -0.715692 622.707 -4.67128 2.83309 0 0 2.83309
101 32.598 60.8564 19.5601 0.682167 0.0468532 0.729694 0 2 2 16 0.995546 -0.0639234 -0.0692964 0 0.00251134 -3.57918e-10 -1.39442e-11 1.26423e-11 0.00020047 2.92596e-09 1050.74 -0.000402859 -1.56943e-05 0.000107435 630.052 0.00159848 3.40432e-05 0 0 3.40432e-05
102 12.5702 10.8565 60.2243 0.679405 -0.0441843 0.732432 0 2 2 16 0.995236 0.0600381 -0.0768178 0 0.00785888 -0.000420542 -0.000242523 2.47133e-05 8.29721e-05 0.00349856 3287.74 -166.296 -101.972 74.8014 258.655 668.95 247.442 0 0 247.442
103 53.8523 5.63625 27.7837 0.709654 -0.0291118 0.703948 0 2 2 16 0.99912 0.0413186 0.00721863 0 0.00356978 1.9264e-07 -2.79042e-08 3.80801e-09 0.000161421 -1.61914e-06 1493.58 0.21567 -0.0310715 0.0322163 506.932 -0.879871 0.322514 0 0 0.322514
104 18.982 14.4651 26.0396 0.713658 0.0518855 0.69857 0 2 2 16 0.99708 -0.074057 0.0186156 0 0.00334182 4.345e-08 1.34287e-08 2.80005e-10 0.000168652 -1.05217e-07 1398.21 0.0487334 0.0150608 0.0023711 530.064 -0.0572782 -0.00745247 0 0 -0.00745247
105 16.5531 51.6094 59.0341 0.720742 0.0390292 0.692104 0 2 2 16 0.997657 -0.05626 0.038937 0 0.00762777 8.10761e-05 -0.000343475 -8.52739e-06 -2.73534e-07 -0.000685551 3191.38 33.6805 -143.645 -26.8257 -0.597809 -137.666 319.343 0 0 319.343
106 34.5035 46.9119 24.7352 0.73307 0.0280312 0.679575 0 2 2 16 0.996352 -0.0410976 0.0747843 0 0.00317811 -2.38206e-07 -1.77317e-07 -1.22695e-08 0.000203829 1.80433e-06 1329.71 -0.267938 -0.199438 -0.104198 640.147 0.985065 0.363207 0 0 0.363207
107 9.38914 33.2058 8.90153 0.696909 -0.0593715 0.714698 0 2 2 16 0.996159 0.082753 -0.0286354 0 0.00114193 4.39794e-08 3.65741e-07 1.66145e-08 0.000174749 3.47046e-07 477.789 0.0496576 0.412243 0.141364 548.182 0.190071 0.849105 0 0 0.849105
108 49.8847 41.0258 14.8822 0.725682 0.0578661 0.685593 0 2 2 16 0.995044 -0.0839847 0.053228 0 0.00190877 -3.20861e-08 -2.30004e-07 -1.11168e-08 0.000190267 4.31329e-07 798.448 -0.0361455 -0.25909 -0.0945518 597.374 0.235839 0.775676 0 0 0.775676
109 17.3609 24.5207 60.9423 0.715789 -0.0558592 0.696079 0 2 2 16 0.996491 0.0799668 0.024707 0 0.00942979 -0.000143656 0.000408566 1.71439e-05 -9.08233e-06 -0.00161682 3944.25 -57.414 171.005 53.751 -29.6434 -318.289 528.311 0 0 528.311
110 10.6994 35.8557 27.8067 0.721297 -0.0520556 0.690667 0 2 2 16 0.996352 0.075095 0.0405376 0 0.00356844 0 0 0 0.000182414 0 1493.02 0 0 0 573.304 0 0 0 0 0
111 3.53362 40.267 60.2219 0.735779 -0.0381091 0.676148 0 2 2 16 0.994992 0.0560797 0.0827424 0 0.007735 -9.4155e-06 -1.99022e-06 -3.5289e-07 0.000207829 7.74678e-05 3236.85 -10.4088 -2.20552 -2.94407 647.523 41.5648 4.58776 0 0 4.58776
112 45.9155 49.341 51.4019 0.719905 -0.0410088 0.69286 0 2 2 16 0.997587 0.0590449 0.0365259 0 0.00660095 -1.53579e-06 -1.41625e-06 -1.63693e-08 0.000180299 -3.19739e-06 2761.95 -1.73827 -1.56883 -0.142864 568.806 -1.62497 -1.77351 0 0 -1.77351
113 53.3325 41.0369 43.2942 0.720775 -0.063161 0.690286 0 2 2 16 0.995081 0.0910497 0.0390318 0 0.00555142 5.77599e-07 -7.96549e-07 5.02667e-08 0.00018105 -4.74283e-06 2322.68 0.620708 -0.859664 0.409145 566.921 -2.47332 1.76304 0 0 1.76304
114 37.4871 20.369 56.6115 0.711298 0.212583 0.669973 0 2 2 16 0.953101 -0.302419 0.0118896 0 0.00707379 -1.16941e-06 -2.72171e-07 4.74003e-08 0.000164547 -1.16157e-05 2959.38 -1.30887 -0.302489 0.398654 517.783 -6.29431 -0.7461 0 0 -0.7461
115 42.3549 33.8492 28.0202 0.684504 -0.0408262 0.727865 0 2 2 16 0.996453 0.0558915 -0.0629074 0 0.0035986 0 0 0 0.000196459 0 1505.64 0 0 0 617.445 0 0 0 0 0
116 13.2432 39.4972 47.6475 0.687511 -0.0375485 0.725202 0 2 2 16 0.997169 0.0516301 -0.0546567 0 0.00612017 -3.90197e-09 -2.47128e-10 -8.62215e-11 0.000191279 -2.31562e-08 2560.65 -0.00481559 -0.00030498 -0.000803576 601.166 -0.0138731 -0.00047635 0 0 -0.00047635
117 20.1238 5.84117 23.4923 0.745732 -0.0222113 0.665876 0 2 2 16 0.99313 0.0331273 0.112233 0 0.00301888 1.76348e-07 5.97621e-07 2.4393e-12 0.000227214 9.83671e-07 1263.03 0.198599 0.672992 2.07444e-05 712.955 0.537683 0.991733 0 0 0.991733
118 54.7431 41.5322 57.5193 0.705151 0.0211495 0.708742 0 2 2 16 0.99954 -0.0298272 -0.00552483 0 0.00739199 -1.53468e-06 -2.75344e-06 5.03761e-09 0.000160633 -2.77726e-06 3092.65 -1.72362 -3.08584 0.0420702 505.905 -1.51714 -0.642215 0 0 -0.642215
119 28.945 56.902 34.0532 0.696711 0.0538915 0.715324 0 2 2 16 0.996749 -0.0750937 -0.0291862 0 0.00437003 1.80962e-07 3.44249e-07 -1.08763e-08 0.000175106 1.47136e-06 1828.39 0.203742 0.387565 -0.0924541 549.365 0.804047 0.818461 0 0 0.818461
120 57.7766 35.4629 10.3726 0.674374 0.00664515 0.73836 0 2 2 16 0.995862 -0.00896263 -0.0904397 0 0.00133343 -4.66228e-08 -3.90109e-08 2.04452e-09 0.000213727 3.77858e-07 557.941 -0.0525016 -0.0439277 0.0173827 671.622 0.206525 0.1444 0 0 0.1444
121 15.1365 27.8103 12.538 0.671973 0.00183223 0.740573 0 2 2 16 0.995291 -0.00246242 -0.0969043 0 0.0016118 -3.1273e-07 2.92909e-07 1.3938e-08 0.000217936 2.17561e-06 674.39 -0.350671 0.328429 0.117998 685.649 1.18407 -0.52261 0 0 -0.52261
122 47.7473 37.5421 12.238 0.699415 0.0625392 0.711975 0 2 2 16 0.995931 -0.0874817 -0.0216383 0 0.00156948 5.88095e-08 3.89506e-08 -1.41333e-09 0.000170528 2.42348e-07 656.622 0.0664647 0.0438585 -0.0120374 535.842 0.131514 0.135683 0 0 0.135683
123 2.84882 6.37933 4.48438 0.724416 -0.0445228 0.687924 0 2 2 16 0.996686 0.064506 0.0495574 0 0.000575641 -4.91113e-08 6.92389e-07 2.28719e-08 0.00018768 8.78446e-07 240.776 -0.0552108 0.779183 0.194341 587.731 0.479602 1.80781 0 0 1.80781
124 45.566 29.1367 45.307 0.730774 0.0153924 0.682446 0 2 2 16 0.997428 -0.0224968 0.0680606 0 0.00582345 -1.15326e-07 1.51549e-07 2.34735e-09 0.000199617 -9.32304e-07 2436.56 -0.130332 0.171259 0.0200288 626.956 -0.511391 0.475334 0 0 0.475334
125 54.1379 54.1361 5.2174 0.709049 -0.0435641 0.703813 0 2 2 16 0.998075 0.0617782 0.00550022 0 0.000669835 -1.58866e-07 4.59176e-07 1.14866e-08 0.000160235 -7.67488e-07 280.195 -0.17828 0.518055 0.097662 502.625 -0.415273 0.861264 0 0 0.861264
126 51.7896 38.2457 5.52495 0.733139 0.0153438 0.679905 0 2 2 16 0.996931 -0.0224983 0.0749863 0 0.000710082 6.23862e-07 -8.91334e-08 -4.1617e-09 0.000203905 2.15872e-07 297.062 0.699118 -0.101364 -0.0350776 640.106 0.114158 0.681539 0 0 0.681539
127 40.8179 57.7577 23.8177 0.697689 -0.035141 0.715539 0 2 2 16 0.998447 0.049035 -0.0264604 0 0.00305955 0 0 0 0.000173576 0 1280.1 0 0 0 545.526 0 0 0 0 0