ITEM: TIMESTEP
0
ITEM: NUMBER OF ATOMS
200
ITEM: BOX BOUNDS xy xz yz pp pp pp
0.0000000000000000e+00 1.4638100000000000e+01 0.0000000000000000e+00
0.0000000000000000e+00 1.4638100000000000e+01 0.0000000000000000e+00
0.0000000000000000e+00 1.4638100000000000e+01 0.0000000000000000e+00
ITEM: ATOMS id x y z radius 
1 14.1435 1.89085 0.155997 1.4 
2 1.62024 4.56799 12.0809 1.4 
3 13.7619 13.5034 3.17762 1.4 
4 6.53095 9.25828 0.989975 1.4 
5 9.6285 1.96849 2.33648 1.4 
6 9.76461 6.124 5.669 1.4 
7 14.0903 1.10188 2.17321 1.4 
8 3.10294 10.2528 14.1681 1.4 
9 5.55713 7.5996 9.03981 1.4 
10 3.21174 9.02584 2.72309 1.4 
11 8.32101 13.4844 5.80819 1.4 
12 11.4031 10.6147 7.09393 1.4 
13 0.395772 6.04486 7.48693 1.4 
14 3.67318 6.33333 10.6585 1.4 
15 11.1606 4.36162 12.84 1.4 
16 7.4415 1.40171 5.90304 1.4 
17 9.97816 8.87795 5.55219 1.4 
18 12.4831 9.961 13.1578 1.4 
19 6.10826 4.58077 7.17321 1.4 
20 0.797963 2.86023 0.433606 1.4 
21 12.4741 5.54043 4.98667 1.4 
22 7.76967 13.0071 5.64476 1.4 
23 1.99493 7.61577 2.68233 1.4 
24 11.2103 4.31962 9.55906 1.4 
25 6.0124 3.60269 7.23468 1.4 
26 9.13074 9.09289 2.46349 1.4 
27 7.38862 5.45305 0.184736 1.4 
28 1.57813 14.0954 13.7256 1.4 
29 4.65342 13.3529 4.88383 1.4 
30 6.7874 1.05261 8.36141 1.4 
31 4.49261 3.92272 13.7373 1.4 
32 10.5128 7.58904 7.31151 1.4 
33 12.3488 7.86804 12.1959 1.4 
34 14.0183 5.8495 3.0249 1.4 
35 1.32526 9.14906 9.56586 1.4 
36 3.16661 11.7315 10.0169 1.4 
37 0.579498 5.29279 0.263217 1.4 
38 3.18394 10.2989 12.9767 1.4 
39 5.76905 12.3312 3.79513 1.4 
40 6.60202 3.422 0.410483 1.4 
41 4.43537 8.11494 4.66568 1.4 
42 14.4787 0.576124 7.13837 1.4 
43 0.717167 6.26971 10.0318 1.4 
44 2.35708 4.67227 8.1554 1.4 
45 11.1998 4.07183 2.05024 1.4 
46 0.281343 0.423139 12.2149 1.4 
47 10.4187 5.68858 6.56607 1.4 
48 13.9366 8.45625 2.91675 1.4 
49 13.3802 10.2603 7.34399 1.4 
50 1.92526 7.57733 0.764133 1.4 
51 5.16646 14.0774 3.79407 1.4 
52 3.29071 4.21197 0.775476 1.4 
53 5.50806 2.66289 6.59153 1.4 
54 2.63163 8.08189 5.33822 1.4 
55 2.49047 6.9285 1.26463 1.4 
56 0.0510941 9.72884 5.10198 1.4 
57 13.583 8.8724 0.166008 1.4 
58 8.86054 5.67459 5.62742 1.4 
59 3.27155 4.32032 6.58533 1.4 
60 0.910109 14.0175 6.09044 1.4 
61 12.4835 2.48401 0.921289 1.4 
62 11.6338 9.00801 10.3127 1.4 
63 11.0566 12.5927 7.39727 1.4 
64 4.56567 2.37186 4.22343 1.4 
65 3.06477 12.7415 6.13492 1.4 
66 13.4109 0.292108 5.69339 1.4 
67 14.1119 12.3047 12.1146 1.4 
68 9.13458 0.509722 3.60431 1.4 
69 5.09666 12.0204 6.32838 1.4 
70 0.675458 7.89022 4.39755 1.4 
71 1.89545 4.35338 6.04156 1.4 
72 10.6803 12.0621 4.97813 1.4 
73 10.6666 0.636908 4.06741 1.4 
74 1.05112 12.5538 12.371 1.4 
75 14.2205 8.41363 3.894 1.4 
76 14.1504 14.4431 0.821509 1.4 
77 3.37926 13.9678 6.01318 1.4 
78 2.13878 9.98587 6.70119 1.4 
79 1.36281 10.7848 10.4865 1.4 
80 3.92544 0.889067 11.6812 1.4 
81 14.2355 11.1113 8.83562 1.4 
82 11.3032 13.9573 4.16311 1.4 
83 13.8424 5.77665 8.19492 1.4 
84 2.20652 6.75643 7.57985 1.4 
85 13.855 12.7136 5.68427 1.4 
86 7.30556 0.116238 6.73752 1.4 
87 11.8668 0.771231 7.36214 1.4 
88 14.1831 9.03265 14.6137 1.4 
89 14.392 6.15706 4.89531 1.4 
90 9.27603 6.46731 8.22164 1.4 
91 12.0619 1.80267 11.1875 1.4 
92 2.56444 6.05297 12.1426 1.4 
93 10.9329 12.6246 2.91668 1.4 
94 12.2521 6.56268 0.821137 1.4 
95 11.7643 5.25007 14.0686 1.4 
96 1.53129 2.64702 3.32992 1.4 
97 4.4479 13.8006 5.26914 1.4 
98 12.5964 10.9836 0.198771 1.4 
99 3.2493 10.8926 8.2067 1.4 
100 9.89862 4.06657 1.49312 1.4 
101 14.1436 3.81631 11.2166 1 
102 8.33401 12.3667 0.647978 1 
103 14.4505 8.80263 13.1212 1 
104 5.57498 0.233927 8.59324 1 
105 7.15415 2.47456 3.11905 1 
106 2.88032 1.31026 5.78168 1 
107 5.06471 2.08033 8.28441 1 
108 13.156 4.23622 13.1498 1 
109 3.30531 0.674735 10.386 1 
110 12.7839 0.477184 12.9872 1 
111 7.00828 10.0035 9.65 1 
112 12.0979 6.75146 11.8987 1 
113 9.6564 2.47917 7.35573 1 
114 9.02105 9.94951 10.4031 1 
115 7.10092 0.751222 7.73892 1 
116 8.50549 10.6476 4.21537 1 
117 13.9701 0.628084 2.13412 1 
118 4.83807 13.4416 2.54386 1 
119 11.3672 7.01812 14.2949 1 
120 13.9379 1.53121 1.32015 1 
121 11.0784 12.9257 12.5442 1 
122 12.4397 12.8116 12.8756 1 
123 5.89078 8.94393 1.9177 1 
124 12.2898 11.649 0.544073 1 
125 10.0684 2.34114 0.351071 1 
126 1.29124 8.22895 3.19663 1 
127 3.89764 2.08928 12.3024 1 
128 3.41324 14.3277 9.1652 1 
129 2.72481 7.93008 1.02266 1 
130 2.76795 1.04467 6.73032 1 
131 7.90614 8.40669 4.23739 1 
132 3.3881 1.60372 5.05697 1 
133 3.74281 5.54806 1.50011 1 
134 5.46082 13.7146 9.87432 1 
135 5.52951 11.7594 11.816 1 
136 11.5346 8.83905 10.5007 1 
137 8.40283 12.5896 14.2479 1 
138 14.1375 3.77887 11.3773 1 
139 0.277559 10.0189 6.13383 1 
140 9.7163 13.884 2.31969 1 
141 5.7673 12.1344 4.70959 1 
142 5.90512 0.969542 2.89068 1 
143 14.4462 9.78155 12.6797 1 
144 7.00525 3.01803 3.0622 1 
145 13.4004 14.0454 7.69783 1 
146 5.95691 7.7384 14.3745 1 
147 4.37587 3.4281 0.566039 1 
148 13.2839 1.95907 5.0854 1 
149 13.1358 1.60573 9.41996 1 
150 10.1943 11.268 7.91506 1 
151 11.959 13.5079 5.63892 1 
152 6.21478 8.88518 9.98678 1 
153 7.36289 12.196 1.05297 1 
154 14.3871 11.7098 12.3123 1 
155 8.18929 9.9037 1.67998 1 
156 13.2499 1.33386 7.1809 1 
157 12.8143 0.240507 2.08636 1 
158 7.18665 7.02384 8.0017 1 
159 4.31179 9.66819 10.2896 1 
160 2.88785 10.8432 12.7553 1 
161 2.96178 9.10483 12.7627 1 
162 10.6337 3.90877 13.4636 1 
163 6.36646 11.2595 11.0586 1 
164 2.52893 9.27024 11.6297 1 
165 11.8534 10.071 2.56093 1 
166 5.53923 14.2183 0.317378 1 
167 5.90477 9.73857 7.56189 1 
168 4.77545 0.321556 2.93703 1 
169 2.91953 1.61733 14.1953 1 
170 8.2058 9.4043 10.4581 1 
171 10.3375 2.54654 12.4829 1 
172 6.72436 10.1484 0.815673 1 
173 7.74952 10.9792 0.286623 1 
174 1.33059 10.8855 5.4177 1 
175 6.36461 9.36795 14.3371 1 
176 6.66945 9.57851 10.8054 1 
177 6.30036 12.7475 4.04996 1 
178 0.528865 3.31014 8.73874 1 
179 7.95504 10.629 13.6415 1 
180 10.4544 5.51079 4.57673 1 
181 12.501 2.90991 1.04129 1 
182 8.4729 4.66438 7.25934 1 
183 13.8295 8.02512 2.78597 1 
184 11.2287 6.76514 7.59272 1 
185 10.5373 8.72234 10.3564 1 
186 13.4202 10.1067 2.06156 1 
187 0.233319 13.0148 3.10129 1 
188 11.6757 10.4167 1.17208 1 
189 10.9375 0.734691 8.02569 1 
190 12.4019 7.65389 13.9133 1 
191 11.3616 1.03483 2.25615 1 
192 6.50524 1.54691 1.66223 1 
193 7.66669 9.46083 9.10069 1 
194 1.74421 9.40199 0.986785 1 
195 14.5722 5.00467 3.00298 1 
196 13.5305 4.64446 9.15798 1 
197 13.2456 1.75165 2.75658 1 
198 0.267154 10.807 3.96323 1 
199 6.66875 12.3804 11.4185 1 
200 4.55158 14.2548 13.127 1 
ITEM: TIMESTEP
10000
ITEM: NUMBER OF ATOMS
200
ITEM: BOX BOUNDS xy xz yz pp pp pp
0.0000000000000000e+00 1.4638100000000000e+01 0.0000000000000000e+00
0.0000000000000000e+00 1.4638100000000000e+01 0.0000000000000000e+00
0.0000000000000000e+00 1.4638100000000000e+01 0.0000000000000000e+00
ITEM: ATOMS id x y z radius 
1 0.220644 2.10313 13.1473 1.4 
2 13.2296 5.53556 6.77613 1.4 
3 11.8939 12.4202 5.97829 1.4 
4 9.27778 4.29019 1.04504 1.4 
5 9.17592 13.8969 1.97698 1.4 
6 11.065 12.2296 8.39237 1.4 
7 2.86142 10.1874 2.00547 1.4 
8 3.41636 12.7083 5.64313 1.4 
9 7.93581 11.4334 8.6616 1.4 
10 14.0672 7.12324 2.9043 1.4 
11 10.1527 2.42214 7.07541 1.4 
12 13.971 13.655 3.92828 1.4 
13 2.69107 1.52729 6.37228 1.4 
14 1.84879 3.30555 10.9165 1.4 
15 4.57474 2.65481 11.2871 1.4 
16 7.69757 3.95061 7.64525 1.4 
17 7.12853 12.4431 14.0656 1.4 
18 8.39766 11.7696 11.6691 1.4 
19 7.33793 5.81551 5.66544 1.4 
20 13.0728 2.70833 1.89418 1.4 
21 13.7335 3.38169 5.37681 1.4 
22 5.329 9.86767 6.39247 1.4 
23 4.89163 5.75253 4.12057 1.4 
24 9.82909 5.26648 6.70505 1.4 
25 7.25027 1.88927 13.1432 1.4 
26 12.9327 13.8399 1.57222 1.4 
27 6.03866 8.2286 14.3935 1.4 
28 3.75158 12.4398 1.03453 1.4 
29 5.43284 11.1997 3.55169 1.4 
30 8.89132 1.60043 4.46845 1.4 
31 5.66775 3.30793 14.6178 1.4 
32 10.1052 6.36356 10.7124 1.4 
33 14.2697 8.07441 7.99169 1.4 
34 8.3835 4.18569 13.1876 1.4 
35 4.38614 7.76533 8.33413 1.4 
36 5.41115 0.109996 10.7254 1.4 
37 13.2185 8.97021 14.5496 1.4 
38 4.58615 10.5293 12.0129 1.4 
39 7.65803 9.98056 2.34709 1.4 
40 2.27278 5.96619 2.10577 1.4 
41 9.56378 7.48207 5.13057 1.4 
42 13.8201 12.7707 8.1566 1.4 
43 2.31246 5.69089 7.51346 1.4 
44 0.679314 3.67708 7.95353 1.4 
45 14.5805 6.01913 0.461356 1.4 
46 11.7484 0.162809 9.27428 1.4 
47 0.1944 0.993903 8.44699 1.4 
48 0.504406 11.2182 1.16627 1.4 
49 12.2194 7.45947 4.95881 1.4 
50 9.90462 6.50908 13.7072 1.4 
51 6.44609 4.58282 10.2532 1.4 
52 3.1223 2.62714 14.4454 1.4 
53 5.58103 0.161575 6.72879 1.4 
54 4.88638 7.54539 2.232 1.4 
55 1.91344 8.0195 0.17898 1.4 
56 1.03488 3.56027 3.5051 1.4 
57 9.04527 9.36869 10.8058 1.4 
58 8.37668 7.5541 1.51977 1.4 
59 8.36041 1.01418 10.7519 1.4 
60 13.0093 9.94585 2.61045 1.4 
61 9.91064 2.20827 14.1592 1.4 
62 13.2438 12.3925 10.9713 1.4 
63 9.21231 14.5623 7.76855 1.4 
64 8.0437 4.18775 3.5127 1.4 
65 1.02795 7.22534 5.85584 1.4 
66 0.975273 13.6453 6.24903 1.4 
67 11.2929 0.338232 12.6664 1.4 
68 4.52849 12.449 8.07382 1.4 
69 5.61807 9.96813 9.24737 1.4 
70 4.89346 3.47678 5.62209 1.4 
71 0.719733 0.669261 2.1163 1.4 
72 8.85179 12.0508 3.9862 1.4 
73 12.484 2.95158 8.33514 1.4 
74 1.86391 6.44919 12.5124 1.4 
75 12.9011 9.21291 11.6552 1.4 
76 10.7693 9.97307 4.63278 1.4 
77 3.60411 2.05758 8.74634 1.4 
78 2.62783 8.25931 3.95017 1.4 
79 1.34732 13.5717 12.3744 1.4 
80 2.42094 13.9842 9.78697 1.4 
81 1.13827 9.96275 8.92892 1.4 
82 13.7553 13.7783 13.6563 1.4 
83 0.573774 8.05646 10.7348 1.4 
84 4.88366 4.99992 7.90099 1.4 
85 12.2175 9.95778 9.15941 1.4 
86 6.80392 12.4629 6.44869 1.4 
87 11.9243 2.88819 11.0767 1.4 
88 0.750258 10.1642 12.6765 1.4 
89 3.33148 1.75715 3.42208 1.4 
90 7.61067 8.78889 7.82966 1.4 
91 13.6881 0.389469 11.2267 1.4 
92 4.16118 6.4835 14.0436 1.4 
93 11.4118 6.5905 1.48178 1.4 
94 10.7719 3.12375 3.10717 1.4 
95 12.4882 7.13971 9.73231 1.4 
96 6.72636 5.44467 1.78347 1.4 
97 6.84073 13.9056 4.17483 1.4 
98 10.6106 9.49011 1.48057 1.4 
99 5.16919 7.43623 10.9294 1.4 
100 7.41957 6.77012 12.1559 1.4 
101 2.54895 3.68766 6.32084 1 
102 8.99631 14.4084 12.6898 1 
103 11.8991 5.30986 12.0158 1 
104 2.11327 10.1593 6.00017 1 
105 7.3016 2.76485 5.61976 1 
106 4.54536 0.123399 4.65554 1 
107 3.2148 0.317218 1.62864 1 
108 11.9187 4.37918 0.597758 1 
109 1.49243 4.13319 13.3417 1 
110 11.3544 13.6082 0.0325892 1 
111 10.4604 4.27342 8.69817 1 
112 12.3094 3.70235 13.5739 1 
113 3.19669 3.85842 1.92413 1 
114 1.27401 13.3941 1.01934 1 
115 9.42113 3.53543 10.064 1 
116 6.47726 8.03473 5.18877 1 
117 6.58941 2.11955 8.8283 1 
118 13.8634 4.12049 11.4718 1 
119 2.94732 11.151 9.68167 1 
120 13.0622 5.9876 13.5313 1 
121 10.529 12.692 11.3655 1 
122 11.2028 12.2544 2.20749 1 
123 8.49834 8.92988 13.0793 1 
124 11.2035 1.53953 1.24585 1 
125 5.97842 12.4396 10.4818 1 
126 2.88853 11.0128 13.2115 1 
127 3.97666 4.39785 12.9419 1 
128 6.74382 6.20619 8.55694 1 
129 2.39879 1.01804 12.0318 1 
130 10.7803 0.256304 6.23658 1 
131 11.5188 3.79793 5.86143 1 
132 3.62474 10.0566 8.03838 1 
133 1.58356 0.368548 4.5028 1 
134 7.84033 1.63273 6.9851 1 
135 1.74459 0.535241 0.0472155 1 
136 9.13964 1.9318 1.8133 1 
137 7.59163 9.89483 4.78077 1 
138 0.972743 4.7878 5.84143 1 
139 10.7133 10.8702 10.8983 1 
140 6.66222 0.869877 1.30294 1 
141 10.9948 8.37245 10.9661 1 
142 9.85902 5.69839 3.49376 1 
143 3.00483 6.42417 9.73828 1 
144 8.02394 7.74753 3.80184 1 
145 10.3588 1.93012 9.77971 1 
146 3.3895 0.0956972 13.502 1 
147 5.04464 0.420048 2.57306 1 
148 14.1926 1.76292 3.9788 1 
149 1.47014 12.6352 4.11554 1 
150 3.88536 13.015 11.7615 1 
151 0.0974276 10.7748 6.53716 1 
152 7.00869 9.47529 12.0163 1 
153 2.57238 13.798 3.18596 1 
154 10.2837 10.1745 7.38541 1 
155 12.0458 0.768862 3.14281 1 
156 0.645115 9.6424 2.68683 1 
157 13.7747 4.9897 3.46705 1 
158 12.5778 0.848868 7.26166 1 
159 4.00602 5.29967 10.8957 1 
160 2.39223 8.6483 7.1481 1 
161 0.0726817 11.1787 4.47358 1 
162 8.73295 13.3833 9.76561 1 
163 4.85322 1.11548 13.0245 1 
164 3.12759 8.63354 12.4327 1 
165 11.6048 8.90398 6.58515 1 
166 4.5416 12.4456 13.3063 1 
167 9.05895 9.89303 6.15633 1 
168 12.9878 11.7177 13.249 1 
169 2.60521 4.93571 0.0252339 1 
170 6.14489 4.3966 12.536 1 
171 4.65728 0.277961 0.486719 1 
172 5.35153 10.8177 14.4107 1 
173 2.57194 9.82718 11.1358 1 
174 13.6704 9.40746 5.4496 1 
175 6.25642 13.236 1.84361 1 
176 9.50181 12.4982 0.209523 1 
177 11.9838 11.8443 3.61643 1 
178 2.04772 12.3124 8.03397 1 
179 12.1738 1.21241 5.38822 1 
180 11.6481 5.21951 4.23846 1 
181 2.12363 7.75768 8.90315 1 
182 10.8512 8.38904 8.13195 1 
183 13.9611 2.66401 10.0643 1 
184 11.9618 11.6479 0.577673 1 
185 9.05839 7.00388 8.67012 1 
186 0.97475 2.42181 0.709236 1 
187 4.97296 3.55762 3.2048 1 
188 10.9899 11.7703 12.9418 1 
189 14.2963 5.0571 9.7249 1 
190 8.27354 0.708481 0.290164 1 
191 9.92598 14.1981 4.24221 1 
192 6.19012 13.4488 12.4694 1 
193 9.32863 11.7588 6.58177 1 
194 11.6892 7.53396 12.4778 1 
195 5.86633 1.61109 4.17034 1 
196 12.2366 4.91624 9.89007 1 
197 6.8121 14.339 8.84559 1 
198 13.2307 1.12954 0.213846 1 
199 9.3725 9.98282 14.3307 1 
200 6.64773 14.5833 14.0516 1 
ITEM: TIMESTEP
20000
ITEM: NUMBER OF ATOMS
200
ITEM: BOX BOUNDS xy xz yz pp pp pp
0.0000000000000000e+00 1.4638100000000000e+01 0.0000000000000000e+00
0.0000000000000000e+00 1.4638100000000000e+01 0.0000000000000000e+00
0.0000000000000000e+00 1.4638100000000000e+01 0.0000000000000000e+00
ITEM: ATOMS id x y z radius 
1 14.5036 2.03661 12.8236 1.4 
2 13.2978 4.85507 6.08101 1.4 
3 12.6269 13.0373 6.66099 1.4 
4 7.6894 4.15117 0.663165 1.4 
5 7.86254 13.9499 1.591 1.4 
6 11.3599 11.7086 9.53208 1.4 
7 1.92022 10.4386 1.59942 1.4 
8 4.32143 13.4879 5.57529 1.4 
9 8.23218 11.0157 8.90308 1.4 
10 14.1799 6.46005 1.8948 1.4 
11 10.9318 3.1166 6.62116 1.4 
12 14.6039 12.4566 4.16167 1.4 
13 1.79976 0.407179 6.06496 1.4 
14 2.06787 3.33977 10.5452 1.4 
15 3.24119 2.67555 12.9762 1.4 
16 7.32796 3.35193 8.00871 1.4 
17 7.505 11.9818 13.5267 1.4 
18 9.23257 12.5112 11.063 1.4 
19 7.32916 5.22884 5.76114 1.4 
20 13.5852 2.95066 2.21985 1.4 
21 14.2705 2.22042 6.00134 1.4 
22 6.22146 10.7289 6.65567 1.4 
23 4.66561 5.71758 4.6235 1.4 
24 10.0028 5.32233 4.42997 1.4 
25 7.15112 2.58046 12.9825 1.4 
26 12.5429 13.8439 1.88914 1.4 
27 6.40691 9.3455 13.6259 1.4 
28 3.31203 12.9998 0.839676 1.4 
29 5.8854 11.9858 3.7077 1.4 
30 8.24043 2.38105 5.66083 1.4 
31 4.70907 4.25164 0.201856 1.4 
32 9.86725 4.35717 8.89429 1.4 
33 13.3398 7.47216 7.29448 1.4 
34 10.6721 4.81729 12.3486 1.4 
35 5.15537 7.45948 6.86552 1.4 
36 5.92319 0.190744 11.6032 1.4 
37 12.274 7.90597 0.0956133 1.4 
38 4.80438 11.3488 12.2169 1.4 
39 8.38478 11.1685 2.53724 1.4 
40 2.29784 7.36825 2.59107 1.4 
41 9.47672 8.09901 5.02046 1.4 
42 14.1031 12.7601 9.40846 1.4 
43 2.79561 5.79672 6.91438 1.4 
44 1.25057 3.30619 7.9541 1.4 
45 0.841124 7.35835 14.1896 1.4 
46 10.8101 14.4893 9.73404 1.4 
47 0.91727 0.68878 9.23889 1.4 
48 14.6485 10.1088 14.0194 1.4 
49 12.5719 6.98586 4.49712 1.4 
50 8.93264 6.72575 14.2503 1.4 
51 6.0761 3.5032 10.5865 1.4 
52 1.3788 2.57249 0.882398 1.4 
53 5.57964 1.04513 6.84647 1.4 
54 4.63695 8.50964 1.09048 1.4 
55 2.7209 9.40796 13.7125 1.4 
56 1.58266 4.68858 2.97492 1.4 
57 8.54536 9.31099 11.2212 1.4 
58 7.99842 8.43044 2.10175 1.4 
59 8.81799 0.80335 11.4983 1.4 
60 14.1523 9.23022 3.08109 1.4 
61 9.83579 2.79613 13.9707 1.4 
62 13.447 11.0195 11.4747 1.4 
63 10.2123 0.234159 6.95206 1.4 
64 6.39949 3.61523 3.43951 1.4 
65 0.665291 6.66285 4.7942 1.4 
66 1.07838 12.2286 6.85689 1.4 
67 11.465 0.0762265 13.2752 1.4 
68 6.30346 13.3943 9.07253 1.4 
69 5.11485 10.1519 9.55064 1.4 
70 3.52298 3.16729 5.61749 1.4 
71 0.122525 0.517836 3.44979 1.4 
72 9.76376 12.1449 4.80307 1.4 
73 12.6928 2.93873 8.82412 1.4 
74 2.3585 7.04578 11.9091 1.4 
75 13.7802 8.23044 12.0508 1.4 
76 12.6632 9.86308 5.33987 1.4 
77 4.25682 2.04264 9.11705 1.4 
78 4.35518 9.39556 4.34277 1.4 
79 1.29756 14.1909 12.7502 1.4 
80 3.32336 14.1471 8.19393 1.4 
81 0.733995 10.3192 9.01245 1.4 
82 12.9377 12.4771 13.957 1.4 
83 0.450497 7.47443 9.69589 1.4 
84 4.71051 4.72854 8.55511 1.4 
85 12.608 9.05488 9.59974 1.4 
86 7.71629 13.1854 6.61719 1.4 
87 11.4559 2.31295 11.4206 1.4 
88 1.49897 11.4492 12.0141 1.4 
89 3.12882 1.18747 3.35975 1.4 
90 7.41517 8.39641 8.31836 1.4 
91 13.2799 0.264853 10.898 1.4 
92 5.45438 6.59702 13.4896 1.4 
93 10.5585 7.24198 2.29072 1.4 
94 10.4886 3.10938 2.65738 1.4 
95 11.505 6.49959 9.40757 1.4 
96 6.23844 6.23886 1.90571 1.4 
97 7.58536 0.0791572 4.25774 1.4 
98 10.8299 9.82898 3.2303 1.4 
99 4.44775 7.23954 9.8716 1.4 
100 6.90736 6.14247 10.584 1.4 
101 1.56086 2.67724 4.30558 1 
102 9.11443 14.0996 13.9121 1 
103 11.8971 4.88693 14.499 1 
104 1.65806 9.88814 6.76948 1 
105 6.01112 3.31718 5.88905 1 
106 5.3964 1.06719 4.42917 1 
107 1.70123 0.108247 1.69962 1 
108 10.0996 5.06212 0.907504 1 
109 1.31361 4.32241 12.6866 1 
110 10.2487 12.795 0.905913 1 
111 11.1897 5.91907 6.39362 1 
112 12.2685 2.81449 14.0907 1 
113 3.37393 5.79724 1.32204 1 
114 14.2293 11.5402 1.40054 1 
115 8.91228 3.6693 11.2186 1 
116 6.35984 8.3725 4.9212 1 
117 7.16391 1.5459 9.66965 1 
118 14.4346 4.5525 9.77015 1 
119 2.86768 11.4904 9.80979 1 
120 13.3438 4.41842 12.3581 1 
121 11.5491 12.491 11.8336 1 
122 12.0856 12.5491 4.41502 1 
123 7.52601 7.49606 12.544 1 
124 11.4552 1.65121 0.968811 1 
125 6.94493 11.0807 11.0808 1 
126 1.08103 12.2649 14.4687 1 
127 3.25288 5.38023 13.3522 1 
128 6.84814 5.64181 8.23121 1 
129 2.90028 0.923065 10.9306 1 
130 12.2011 1.14775 6.09905 1 
131 12.2024 3.95391 4.14139 1 
132 3.98034 9.75196 7.29522 1 
133 2.59443 13.2563 3.78491 1 
134 7.86618 0.765931 7.8775 1 
135 14.5399 14.2471 14.6622 1 
136 8.14054 2.12872 2.09822 1 
137 7.81269 9.75952 4.61358 1 
138 1.25818 4.08764 5.70623 1 
139 10.9821 10.2353 11.4018 1 
140 5.99558 2.25997 0.351128 1 
141 11.1909 8.0398 11.6035 1 
142 8.4948 5.68537 2.54332 1 
143 2.22873 5.44126 9.50219 1 
144 5.85253 9.94669 2.41265 1 
145 9.38557 1.61973 9.09857 1 
146 2.8115 0.775865 0.175194 1 
147 4.90455 13.9976 2.29378 1 
148 12.6285 14.4958 4.30198 1 
149 3.07562 11.3616 5.77763 1 
150 3.31606 13.0028 11.3432 1 
151 13.1857 10.6194 7.51335 1 
152 6.33278 8.59462 11.3584 1 
153 1.26418 12.7751 1.99896 1 
154 10.0171 9.41055 9.20119 1 
155 10.1298 13.8531 2.82978 1 
156 1.67217 9.12762 4.14511 1 
157 13.9385 4.79413 3.69579 1 
158 13.2776 0.453622 8.29994 1 
159 4.68765 5.29539 11.3647 1 
160 2.44212 8.16184 5.82718 1 
161 1.93419 11.0676 4.11377 1 
162 9.6354 12.9421 8.41454 1 
163 5.01529 1.08417 13.6516 1 
164 4.49463 8.54637 12.1098 1 
165 11.2732 8.65467 7.3503 1 
166 4.72646 13.5852 13.4761 1 
167 8.64498 9.7812 6.91021 1 
168 11.8981 9.81423 13.3221 1 
169 1.32919 5.03661 0.188012 1 
170 7.86398 5.17117 12.5898 1 
171 4.53172 2.34619 1.7646 1 
172 4.8138 11.0064 14.6285 1 
173 2.11716 9.31388 11.1223 1 
174 0.276972 8.94724 5.80286 1 
175 6.13126 12.1338 1.29569 1 
176 9.48476 10.9919 0.445898 1 
177 12.796 11.2685 2.92686 1 
178 4.30299 11.9921 8.10232 1 
179 12.0736 1.84649 4.19492 1 
180 12.1556 5.45767 2.4989 1 
181 2.17902 7.85903 8.11552 1 
182 9.06195 6.92341 9.96482 1 
183 14.3694 2.60161 10.4907 1 
184 12.1942 10.427 0.816639 1 
185 9.48221 6.53855 7.3652 1 
186 14.0418 4.37214 14.4833 1 
187 3.89882 3.74069 3.35022 1 
188 10.2645 9.15609 0.487631 1 
189 0.40789 5.63082 8.27635 1 
190 7.83552 1.31519 0.271615 1 
191 10.2148 0.405469 4.57582 1 
192 7.35541 14.612 13.5057 1 
193 10.5922 11.7681 7.03459 1 
194 12.5744 6.40968 12.8658 1 
195 6.11841 1.39351 2.41818 1 
196 12.3451 4.49006 10.6534 1 
197 8.44709 14.2879 9.46262 1 
198 13.1509 1.14504 0.106044 1 
199 9.99246 10.1206 13.1936 1 
200 5.78374 14.4336 0.413213 1 
ITEM: TIMESTEP
30000
ITEM: NUMBER OF ATOMS
200
ITEM: BOX BOUNDS xy xz yz pp pp pp
0.0000000000000000e+00 1.4638100000000000e+01 0.0000000000000000e+00
0.0000000000000000e+00 1.4638100000000000e+01 0.0000000000000000e+00
0.0000000000000000e+00 1.4638100000000000e+01 0.0000000000000000e+00
ITEM: ATOMS id x y z radius 
1 0.127448 2.09184 13.2749 1.4 
2 13.3539 4.74491 5.87009 1.4 
3 12.3948 13.2436 6.6782 1.4 
4 8.04463 4.13615 0.98693 1.4 
5 7.52542 14.3816 1.49962 1.4 
6 11.5781 11.2388 9.38947 1.4 
7 2.28666 10.6025 1.68949 1.4 
8 4.50012 12.8625 5.72909 1.4 
9 8.44941 10.8455 8.86653 1.4 
10 14.2451 6.15863 1.95828 1.4 
11 10.7096 3.34384 6.14055 1.4 
12 14.4977 12.2334 4.66099 1.4 
13 1.24246 0.0939056 6.33217 1.4 
14 1.64688 3.3024 11.2216 1.4 
15 2.66359 3.04779 13.8699 1.4 
16 7.27288 3.20582 7.89729 1.4 
17 7.03316 12.3677 13.6799 1.4 
18 9.23942 12.084 11.7018 1.4 
19 7.23195 4.92631 5.67146 1.4 
20 13.4744 2.87129 1.897 1.4 
21 14.3308 2.20612 5.23999 1.4 
22 7.06274 9.6269 6.12283 1.4 
23 4.53573 5.05081 4.39588 1.4 
24 9.69635 5.11008 4.11186 1.4 
25 7.61005 2.7717 13.0331 1.4 
26 12.1264 14.401 2.75046 1.4 
27 6.63495 9.35165 13.5157 1.4 
28 2.97999 12.7608 0.0698958 1.4 
29 6.28878 11.8385 3.65512 1.4 
30 8.20764 2.24707 5.35044 1.4 
31 5.19081 3.78684 0.27139 1.4 
32 10.0373 5.04967 8.95296 1.4 
33 13.7182 8.35318 7.17808 1.4 
34 9.84625 5.13517 11.8114 1.4 
35 5.3244 6.8684 6.71654 1.4 
36 6.00793 0.372935 11.5906 1.4 
37 12.4908 8.06821 0.152394 1.4 
38 4.31406 11.91 11.8281 1.4 
39 8.43857 11.5106 1.39249 1.4 
40 2.35234 7.96194 2.83862 1.4 
41 9.96703 8.14412 5.04992 1.4 
42 14.0624 12.9373 8.96265 1.4 
43 2.92761 5.44864 6.69402 1.4 
44 1.34202 3.79859 8.26537 1.4 
45 1.97975 7.48757 0.0186597 1.4 
46 11.6218 0.0362998 9.82193 1.4 
47 0.830231 0.886337 9.56237 1.4 
48 14.3756 10.0647 13.7582 1.4 
49 12.4555 6.86472 4.27203 1.4 
50 7.74165 7.25866 0.319134 1.4 
51 5.19394 3.11013 11.1823 1.4 
52 1.41595 1.89298 1.56358 1.4 
53 5.81053 0.702202 7.78042 1.4 
54 4.49059 8.44947 0.603766 1.4 
55 2.43804 10.2501 13.0172 1.4 
56 1.88697 5.11503 3.26666 1.4 
57 8.35416 9.41497 11.2789 1.4 
58 7.8858 8.76187 2.72851 1.4 
59 9.19408 0.562158 11.4122 1.4 
60 14.0969 9.08004 2.44448 1.4 
61 10.2471 3.35155 13.8893 1.4 
62 13.3127 11.4653 11.5796 1.4 
63 9.98285 0.0735111 6.79118 1.4 
64 6.59203 3.49591 3.3301 1.4 
65 0.950597 7.56115 5.28651 1.4 
66 1.49391 11.9668 7.29309 1.4 
67 11.478 0.806061 13.4284 1.4 
68 6.51767 12.6811 9.95774 1.4 
69 5.77439 10.0383 9.45516 1.4 
70 2.90262 2.5653 5.96343 1.4 
71 0.210516 0.2062 3.37769 1.4 
72 9.67736 12.692 4.67395 1.4 
73 12.3195 3.2387 8.40054 1.4 
74 2.24688 6.85885 11.8089 1.4 
75 14.2207 7.24662 12.5028 1.4 
76 12.405 10.077 5.12713 1.4 
77 3.42655 2.03116 9.21147 1.4 
78 5.07546 9.28431 3.28763 1.4 
79 1.85797 14.4078 12.7476 1.4 
80 3.34889 13.9644 8.46674 1.4 
81 0.417466 9.77138 9.93595 1.4 
82 12.6031 12.2909 14.4349 1.4 
83 0.368914 6.96251 9.74821 1.4 
84 4.90191 4.70272 8.94097 1.4 
85 12.3749 8.3255 9.97768 1.4 
86 7.56371 12.9694 7.20916 1.4 
87 11.5865 2.78713 11.2568 1.4 
88 1.61956 12.3242 10.7983 1.4 
89 3.43763 0.740617 3.83355 1.4 
90 7.7629 8.15606 8.31685 1.4 
91 13.721 14.1995 11.8959 1.4 
92 5.44448 6.74471 13.0466 1.4 
93 10.3092 7.1296 1.96519 1.4 
94 10.5265 3.25387 2.13032 1.4 
95 12.5866 6.05183 8.25064 1.4 
96 5.63127 6.22972 1.89139 1.4 
97 7.31177 14.323 4.66061 1.4 
98 10.6419 9.87843 2.81932 1.4 
99 4.37091 7.5463 9.5003 1.4 
100 7.22119 5.82223 10.6858 1.4 
101 1.65626 2.80577 3.86142 1 
102 8.04944 14.5717 13.3784 1 
103 12.463 4.94574 0.316721 1 
104 2.24534 9.36745 6.18261 1 
105 5.62405 3.16667 5.9133 1 
106 5.57689 1.22163 5.32757 1 
107 2.32153 14.3448 1.82927 1 
108 9.81628 6.37148 14.0462 1 
109 1.29614 5.05961 13.0892 1 
110 10.5616 12.2671 2.23225 1 
111 11.1912 6.04542 6.23388 1 
112 12.681 3.18484 14.1047 1 
113 3.08859 5.51312 0.929938 1 
114 14.4261 11.3607 1.13393 1 
115 8.40561 3.42777 10.1712 1 
116 7.06061 7.19165 4.81676 1 
117 7.37327 1.34888 9.76999 1 
118 13.8907 4.23191 9.93066 1 
119 2.56206 9.67794 8.27291 1 
120 14.0997 4.67495 12.029 1 
121 11.5506 13.186 11.735 1 
122 12.0543 12.3213 4.11696 1 
123 8.03151 7.37865 12.492 1 
124 10.6611 0.749139 1.1169 1 
125 6.53082 11.0305 11.7249 1 
126 0.483545 12.4708 14.0553 1 
127 3.55877 5.30112 13.6259 1 
128 7.41039 5.73005 7.97787 1 
129 3.32975 1.60232 11.8238 1 
130 12.3105 1.31166 6.62501 1 
131 11.8309 3.97693 4.08784 1 
132 4.86783 9.2098 7.35058 1 
133 2.81752 12.9411 3.5794 1 
134 8.17484 0.977652 8.02069 1 
135 14.2439 13.5149 1.18613 1 
136 8.78825 1.40274 3.14592 1 
137 8.2667 10.6299 4.22941 1 
138 1.01054 4.19758 5.35198 1 
139 10.8026 9.67045 11.1636 1 
140 6.48278 1.94081 1.29061 1 
141 11.2812 7.50296 12.8045 1 
142 8.06653 6.09589 2.53488 1 
143 2.47916 5.55305 9.48789 1 
144 6.30462 10.0831 1.36408 1 
145 9.62337 2.64149 8.59194 1 
146 3.05807 0.585281 0.173034 1 
147 4.71925 13.554 2.95272 1 
148 12.8276 0.337773 4.93782 1 
149 4.72452 10.4296 5.71437 1 
150 3.40131 14.3794 10.8692 1 
151 13.7916 10.6331 8.06859 1 
152 6.1902 7.93844 10.9426 1 
153 0.879497 12.6214 2.51434 1 
154 9.98167 9.04594 9.24861 1 
155 9.65853 14.0223 2.55053 1 
156 1.24042 10.2346 4.32871 1 
157 14.2782 4.32693 3.60697 1 
158 13.4367 0.709517 8.18531 1 
159 4.10011 5.5099 11.0578 1 
160 3.32239 7.98229 5.275 1 
161 3.38015 10.9038 3.7912 1 
162 9.87047 12.776 8.70723 1 
163 4.63115 1.53431 13.4568 1 
164 4.38847 8.68839 11.932 1 
165 10.2478 7.66186 7.68318 1 
166 5.03293 13.7173 13.4281 1 
167 9.38418 10.0231 6.54196 1 
168 11.5587 10.4435 12.8254 1 
169 1.25932 4.3002 1.00067 1 
170 7.9544 5.48182 13.3255 1 
171 3.82003 1.82969 1.59531 1 
172 4.64983 10.7394 14.4892 1 
173 3.28528 10.1308 10.4745 1 
174 0.0921506 10.2743 6.14671 1 
175 5.78298 12.0705 1.13562 1 
176 9.28512 10.5961 13.6239 1 
177 12.9835 11.3657 2.46125 1 
178 4.75492 11.1497 7.58566 1 
179 11.77 1.98122 4.09314 1 
180 11.9112 5.23222 2.24272 1 
181 2.0702 7.76651 7.87448 1 
182 9.29733 7.24424 10.5047 1 
183 13.9147 2.20334 10.9993 1 
184 11.1687 10.4404 0.340748 1 
185 9.14719 6.27826 6.34665 1 
186 14.3748 5.09883 14.4512 1 
187 4.0269 3.74731 2.37534 1 
188 9.3391 9.31528 0.706762 1 
189 0.740994 6.20302 7.34599 1 
190 8.85509 1.25556 0.133627 1 
191 10.2775 0.694913 4.36679 1 
192 6.35954 0.903818 14.2184 1 
193 10.3672 11.9917 6.94359 1 
194 12.4334 5.54713 12.7642 1 
195 5.9733 1.02636 3.09492 1 
196 12.0742 5.10897 10.7206 1 
197 8.39094 14.1026 9.26382 1 
198 13.3363 0.862986 0.398048 1 
199 9.61336 8.47917 13.3361 1 
200 4.82106 0.146554 1.11351 1 
ITEM: TIMESTEP
40000
ITEM: NUMBER OF ATOMS
200
ITEM: BOX BOUNDS xy xz yz pp pp pp
0.0000000000000000e+00 1.4638100000000000e+01 0.0000000000000000e+00
0.0000000000000000e+00 1.4638100000000000e+01 0.0000000000000000e+00
0.0000000000000000e+00 1.4638100000000000e+01 0.0000000000000000e+00
ITEM: ATOMS id x y z radius 
1 0.330333 1.82895 13.2287 1.4 
2 13.4001 4.8345 6.02448 1.4 
3 12.6684 12.6886 6.7954 1.4 
4 8.30994 4.46629 1.2906 1.4 
5 7.18718 14.074 1.15963 1.4 
6 11.6969 11.0689 9.01842 1.4 
7 1.8794 10.2134 1.0487 1.4 
8 4.7572 13.32 6.2402 1.4 
9 8.65897 11.1029 8.80178 1.4 
10 14.3463 5.87284 2.50698 1.4 
11 10.6976 3.12666 6.42194 1.4 
12 0.0487826 11.9138 4.98327 1.4 
13 0.81242 14.1282 6.54491 1.4 
14 1.30984 3.7735 11.0202 1.4 
15 2.65494 3.26384 14.0996 1.4 
16 7.30918 3.33439 8.02148 1.4 
17 6.73615 12.0149 13.879 1.4 
18 8.57996 12.697 11.143 1.4 
19 7.3283 4.90809 5.5924 1.4 
20 13.4666 2.62094 1.49093 1.4 
21 14.3227 2.01871 5.46449 1.4 
22 6.81589 10.2705 6.33762 1.4 
23 4.6441 4.51397 4.81868 1.4 
24 9.71959 4.46859 4.18125 1.4 
25 7.71177 2.564 12.977 1.4 
26 12.5125 0.0590179 2.33936 1.4 
27 6.63164 9.15877 13.1534 1.4 
28 2.77037 12.6172 14.4643 1.4 
29 6.28766 11.1677 3.6819 1.4 
30 8.03243 1.74816 5.50679 1.4 
31 5.45517 4.03444 0.044986 1.4 
32 9.81199 5.35921 8.40929 1.4 
33 14.2221 8.34337 7.5992 1.4 
34 9.85624 5.70096 12.2289 1.4 
35 5.44526 6.88194 6.77319 1.4 
36 6.4975 0.0792661 11.6746 1.4 
37 12.3821 7.98246 0.332467 1.4 
38 4.55577 12.2459 11.4821 1.4 
39 8.7477 11.6438 1.21681 1.4 
40 2.37891 7.87114 2.64908 1.4 
41 9.9508 8.10384 4.79854 1.4 
42 13.9718 13.0907 9.2632 1.4 
43 2.80212 5.37303 7.23692 1.4 
44 0.628279 3.53097 7.75216 1.4 
45 1.36549 7.81657 14.3547 1.4 
46 12.0382 0.485229 9.1886 1.4 
47 0.968639 0.808661 9.75451 1.4 
48 14.1585 9.9227 13.6592 1.4 
49 12.5498 7.2086 4.46548 1.4 
50 7.42674 7.08411 0.82136 1.4 
51 4.62178 3.27411 11.4044 1.4 
52 1.44642 1.36189 1.54173 1.4 
53 5.47872 1.18838 7.97476 1.4 
54 4.38084 8.57274 0.178976 1.4 
55 2.54331 10.286 12.4341 1.4 
56 2.28826 4.98717 3.31547 1.4 
57 8.98485 9.75981 11.3478 1.4 
58 7.82953 8.74407 3.09467 1.4 
59 9.32635 1.09009 11.1634 1.4 
60 14.2991 8.80208 2.33624 1.4 
61 10.3249 3.27952 14.009 1.4 
62 13.3439 11.8155 11.7585 1.4 
63 10.2696 0.0195739 6.82955 1.4 
64 6.7936 3.25918 3.377 1.4 
65 0.922495 7.47913 5.18049 1.4 
66 1.67504 11.5003 7.22546 1.4 
67 11.3803 0.728017 13.1668 1.4 
68 6.25928 13.0626 9.40548 1.4 
69 5.73521 10.1466 9.24642 1.4 
70 2.95594 2.08324 6.3597 1.4 
71 0.41867 14.4991 3.73155 1.4 
72 9.77212 12.741 4.6824 1.4 
73 12.5522 3.25087 8.56332 1.4 
74 2.28772 7.50294 11.629 1.4 
75 13.9912 6.85202 12.6486 1.4 
76 12.2101 10.4367 5.21716 1.4 
77 3.18211 2.3827 9.15451 1.4 
78 5.13888 8.46301 3.84895 1.4 
79 1.76714 14.017 12.1332 1.4 
80 3.00063 14.0454 8.31915 1.4 
81 0.648012 9.46432 10.5307 1.4 
82 12.3179 12.5728 14.4894 1.4 
83 0.268456 6.56725 9.96353 1.4 
84 4.94635 4.6363 8.93836 1.4 
85 12.5622 8.78219 10.4315 1.4 
86 7.64088 13.6443 6.81782 1.4 
87 11.4834 3.13738 11.2826 1.4 
88 2.06495 11.9383 10.2228 1.4 
89 3.33501 0.458208 4.04514 1.4 
90 8.184 8.29652 9.02996 1.4 
91 13.6406 14.5857 11.6311 1.4 
92 5.66765 6.47486 13.3612 1.4 
93 10.2011 7.20447 2.0549 1.4 
94 10.7827 2.50689 2.34563 1.4 
95 12.6172 6.1417 8.37626 1.4 
96 4.87284 6.28279 1.75806 1.4 
97 6.88652 13.8569 4.09741 1.4 
98 10.7493 9.97043 2.81924 1.4 
99 4.25709 7.53046 9.31685 1.4 
100 6.91994 5.46745 10.7508 1.4 
101 1.46045 2.3499 3.77085 1 
102 8.39699 13.9457 13.3033 1 
103 11.8096 4.99258 0.709461 1 
104 2.78927 9.61199 5.80946 1 