LAMMPS data file via write_data, version 5 Jun 2019, timestep = 1000000

200 atoms
2 atom types

0.0000000000000000e+00 1.4638100000000000e+01 xlo xhi
0.0000000000000000e+00 1.4638100000000000e+01 ylo yhi
0.0000000000000000e+00 1.4638100000000000e+01 zlo zhi
0.0000000000000000e+00 0.0000000000000000e+00 0.0000000000000000e+00 xy xz yz

Atoms # sphere

1 1 2.7999999999999998e+00 1.0000000000000000e+00 4.6892753933312953e-01 1.6776139420786227e+00 1.3424369344345253e+01 1 0 -1
2 1 2.7999999999999998e+00 1.0000000000000000e+00 1.2742247319872412e+01 3.8207134462298118e+00 5.8512951975565404e+00 -1 0 0
3 1 2.7999999999999998e+00 1.0000000000000000e+00 1.3605655932799332e+01 1.2938432907790920e+01 6.3757073186821192e+00 0 0 0
4 1 2.7999999999999998e+00 1.0000000000000000e+00 8.5124672444438847e+00 4.4782086567987163e+00 1.8065193589306472e+00 0 0 0
5 1 2.7999999999999998e+00 1.0000000000000000e+00 6.0480398566377627e+00 1.3838763151670648e+01 1.3133465202966623e+00 0 -1 0
6 1 2.7999999999999998e+00 1.0000000000000000e+00 1.2119012147091816e+01 1.1618850106880695e+01 9.1117710949040216e+00 0 0 0
7 1 2.7999999999999998e+00 1.0000000000000000e+00 2.3587047744570717e+00 1.0400558824544174e+01 8.5661987824024743e-01 1 -1 0
8 1 2.7999999999999998e+00 1.0000000000000000e+00 4.8150335157996746e+00 1.2717957680598850e+01 5.9561514086365213e+00 0 0 1
9 1 2.7999999999999998e+00 1.0000000000000000e+00 8.5059002139579576e+00 1.0810515555800130e+01 9.0465749126256512e+00 0 0 0
10 1 2.7999999999999998e+00 1.0000000000000000e+00 1.3998795778931958e+01 5.8425727589935859e+00 1.9012210760739388e+00 -1 0 0
11 1 2.7999999999999998e+00 1.0000000000000000e+00 1.0447847665599690e+01 2.3861149085485494e+00 6.8255822190617064e+00 0 1 0
12 1 2.7999999999999998e+00 1.0000000000000000e+00 3.9469949188793174e-01 1.1162769308070256e+01 4.7077528213069817e+00 1 0 0
13 1 2.7999999999999998e+00 1.0000000000000000e+00 1.5050255566915323e+00 1.4077214769655432e+01 5.7737212589923645e+00 0 -1 0
14 1 2.7999999999999998e+00 1.0000000000000000e+00 1.9032687076559764e+00 3.6531155604987875e+00 1.1821580005147984e+01 0 0 0
15 1 2.7999999999999998e+00 1.0000000000000000e+00 3.3852178081652715e+00 3.4707468409527067e+00 1.4245570696677177e+01 0 0 0
16 1 2.7999999999999998e+00 1.0000000000000000e+00 7.5321764858337978e+00 3.0531113832841914e+00 8.6706873111150138e+00 0 0 0
17 1 2.7999999999999998e+00 1.0000000000000000e+00 6.5939915984072375e+00 1.2217884214937078e+01 1.3601061030914298e+01 0 0 -1
18 1 2.7999999999999998e+00 1.0000000000000000e+00 8.5419376063904426e+00 1.2634550293735012e+01 1.1300036542637807e+01 0 0 0
19 1 2.7999999999999998e+00 1.0000000000000000e+00 7.3362140768503190e+00 4.2927528390292293e+00 5.7801815419224347e+00 0 0 0
20 1 2.7999999999999998e+00 1.0000000000000000e+00 1.3675058844818482e+01 2.2829872139311504e+00 1.6466509879415288e+00 -1 0 0
21 1 2.7999999999999998e+00 1.0000000000000000e+00 2.5088684767811932e-02 1.8260744985888995e+00 4.8014672588370315e+00 1 0 0
22 1 2.7999999999999998e+00 1.0000000000000000e+00 6.6414631103222836e+00 1.0428643110068245e+01 6.3752697870328676e+00 0 0 0
23 1 2.7999999999999998e+00 1.0000000000000000e+00 4.0774779920731969e+00 3.7062603782369918e+00 5.2146297708600242e+00 0 0 0
24 1 2.7999999999999998e+00 1.0000000000000000e+00 9.8257378408550871e+00 3.4715626387954068e+00 4.2751729496452882e+00 0 0 0
25 1 2.7999999999999998e+00 1.0000000000000000e+00 7.8208344808480348e+00 2.6794502925675672e+00 1.2731325609130987e+01 0 0 0
26 1 2.7999999999999998e+00 1.0000000000000000e+00 1.2443745993249436e+01 1.4271929312330826e+01 2.3367859651802632e+00 0 0 0
27 1 2.7999999999999998e+00 1.0000000000000000e+00 7.8608105231422662e+00 9.6950129864654695e+00 1.4204472242722535e+01 0 0 -1
28 1 2.7999999999999998e+00 1.0000000000000000e+00 2.4290947587265386e+00 1.2862237565238193e+01 1.3991427650642423e+01 0 0 0
29 1 2.7999999999999998e+00 1.0000000000000000e+00 6.4901768511584352e+00 1.1900144206500206e+01 3.7677606078767054e+00 0 0 0
30 1 2.7999999999999998e+00 1.0000000000000000e+00 7.6230511252048805e+00 1.5385186170780247e+00 6.2411523356507335e+00 0 0 1
31 1 2.7999999999999998e+00 1.0000000000000000e+00 6.0042869066422817e+00 4.4948596756528945e+00 1.4544857781296106e+01 0 0 0
32 1 2.7999999999999998e+00 1.0000000000000000e+00 9.7782871640725766e+00 5.3130007719836385e+00 8.9844526963869153e+00 0 0 0
33 1 2.7999999999999998e+00 1.0000000000000000e+00 1.7760198389583853e-02 8.2606107028214861e+00 6.8861702764615815e+00 1 0 0
34 1 2.7999999999999998e+00 1.0000000000000000e+00 1.0061946206829287e+01 5.6618443734810118e+00 1.2315739836494314e+01 0 0 -1
35 1 2.7999999999999998e+00 1.0000000000000000e+00 5.8547557072158636e+00 6.8191480928817478e+00 6.4995942618254441e+00 0 0 0
36 1 2.7999999999999998e+00 1.0000000000000000e+00 6.4690105877876762e+00 1.4461570647309179e+01 1.1778378027666859e+01 0 0 0
37 1 2.7999999999999998e+00 1.0000000000000000e+00 1.1539768568432722e+01 7.5446521941383908e+00 9.0561051116245372e-01 -1 0 0
38 1 2.7999999999999998e+00 1.0000000000000000e+00 4.2679414842861929e+00 1.2233632689595902e+01 1.1435565524915797e+01 0 0 0
39 1 2.7999999999999998e+00 1.0000000000000000e+00 8.4750746297366337e+00 1.1980066991045058e+01 1.1946946552421376e+00 0 0 0
40 1 2.7999999999999998e+00 1.0000000000000000e+00 2.4285068836549786e+00 7.7493889076826301e+00 2.7239974218745524e+00 0 0 0
41 1 2.7999999999999998e+00 1.0000000000000000e+00 9.9832155588203548e+00 8.7584215139269332e+00 5.6508410822152362e+00 0 0 0
42 1 2.7999999999999998e+00 1.0000000000000000e+00 1.3819639033046156e+01 1.3867248514327452e+01 9.0588279355329195e+00 0 -1 0
43 1 2.7999999999999998e+00 1.0000000000000000e+00 2.7159463039229812e+00 5.1979963663293116e+00 7.3260806072876505e+00 0 0 0
44 1 2.7999999999999998e+00 1.0000000000000000e+00 8.6520901748209011e-01 3.7489772074673193e+00 8.9204888111142076e+00 0 0 0
45 1 2.7999999999999998e+00 1.0000000000000000e+00 1.5285656599577366e+00 7.8045443795476670e+00 1.4599570014106220e+01 1 0 -1
46 1 2.7999999999999998e+00 1.0000000000000000e+00 1.1374737146159505e+01 7.8951049688721753e-01 9.0891422176471917e+00 -1 0 0
47 1 2.7999999999999998e+00 1.0000000000000000e+00 1.4682502041500696e+00 9.8063083669849582e-01 9.4015938489088242e+00 1 0 0
48 1 2.7999999999999998e+00 1.0000000000000000e+00 1.3519439368076473e+01 9.6335625380789622e+00 1.4581528641657670e+01 0 0 -1
49 1 2.7999999999999998e+00 1.0000000000000000e+00 1.2380134654366634e+01 6.6880976835673343e+00 5.0332881330238317e+00 0 0 0
50 1 2.7999999999999998e+00 1.0000000000000000e+00 7.8048377701889962e+00 7.2897673146821971e+00 1.4631394450498294e+00 -1 0 0
51 1 2.7999999999999998e+00 1.0000000000000000e+00 4.6956661157109245e+00 3.9858745702270557e+00 1.1777748481038342e+01 0 1 0
52 1 2.7999999999999998e+00 1.0000000000000000e+00 1.8475919302640933e+00 1.8145630453855928e+00 1.3975958991380337e+00 0 0 0
53 1 2.7999999999999998e+00 1.0000000000000000e+00 6.1119320932557413e+00 6.2737299240744071e-01 8.4873516295186615e+00 0 0 0
54 1 2.7999999999999998e+00 1.0000000000000000e+00 5.1598260419146174e+00 8.5834892109180672e+00 1.0270095742121541e+00 0 0 0
55 1 2.7999999999999998e+00 1.0000000000000000e+00 1.9975716792238642e+00 1.0671707960438697e+01 1.2205776780652108e+01 0 0 -1
56 1 2.7999999999999998e+00 1.0000000000000000e+00 2.5415521275429618e+00 4.4171372680903032e+00 2.5826723334438118e+00 0 0 0
57 1 2.7999999999999998e+00 1.0000000000000000e+00 9.4782340480909753e+00 9.7308715934302370e+00 1.1917519756348767e+01 0 0 -1
58 1 2.7999999999999998e+00 1.0000000000000000e+00 8.2885516645165378e+00 9.6712488612402296e+00 3.2082806763821403e+00 0 0 0
59 1 2.7999999999999998e+00 1.0000000000000000e+00 9.5084627430945989e+00 9.7712729111040120e-01 1.1239881596178151e+01 0 0 0
60 1 2.7999999999999998e+00 1.0000000000000000e+00 1.4270579148507315e+01 9.0147905026619970e+00 2.7964816434302269e+00 -1 0 0
61 1 2.7999999999999998e+00 1.0000000000000000e+00 1.0147499852205449e+01 3.5695065837934505e+00 1.4202982656506942e+01 0 0 -1
62 1 2.7999999999999998e+00 1.0000000000000000e+00 1.4108228083367976e+01 1.1701710875907574e+01 1.1558941896509904e+01 0 0 0
63 1 2.7999999999999998e+00 1.0000000000000000e+00 1.0963804834157612e+01 1.4088858637567258e+01 6.0541221733124182e+00 0 0 0
64 1 2.7999999999999998e+00 1.0000000000000000e+00 6.1772225116464048e+00 3.4914784521278999e+00 3.3589413491876425e+00 0 0 0
65 1 2.7999999999999998e+00 1.0000000000000000e+00 9.0717551051635292e-01 6.1556711969079521e+00 4.6270872734681996e+00 0 0 0
66 1 2.7999999999999998e+00 1.0000000000000000e+00 2.3719888857748863e+00 1.1441658323798917e+01 6.7007017791198971e+00 1 -1 0
67 1 2.7999999999999998e+00 1.0000000000000000e+00 1.0883431249244312e+01 4.6028686354495091e-01 1.4136115757673736e+01 0 1 0
68 1 2.7999999999999998e+00 1.0000000000000000e+00 6.2360179228016390e+00 1.2459662478377529e+01 8.4442058007832976e+00 0 -1 0
69 1 2.7999999999999998e+00 1.0000000000000000e+00 5.4300601982361059e+00 9.5178613088802511e+00 9.6176473227740580e+00 0 0 0
70 1 2.7999999999999998e+00 1.0000000000000000e+00 2.5772613874194099e+00 1.8532993595148510e+00 6.9597378199377875e+00 0 0 0
71 1 2.7999999999999998e+00 1.0000000000000000e+00 5.7250952963429358e-01 1.4370567140322732e+01 2.9599695355672337e+00 0 -1 0
72 1 2.7999999999999998e+00 1.0000000000000000e+00 1.0506642453099735e+01 1.2569988508136692e+01 3.6461901611807406e+00 0 0 0
73 1 2.7999999999999998e+00 1.0000000000000000e+00 1.2558983878464772e+01 3.8572467865120128e+00 8.6561639610244256e+00 0 0 0
74 1 2.7999999999999998e+00 1.0000000000000000e+00 2.0153228688967775e+00 7.5464262486830895e+00 1.1821403318337440e+01 0 1 0
75 1 2.7999999999999998e+00 1.0000000000000000e+00 1.3778079151893477e+01 6.5796318117490946e+00 1.2922160213769544e+01 0 0 0
76 1 2.7999999999999998e+00 1.0000000000000000e+00 1.2381381133052686e+01 1.0344855925570055e+01 5.6580799105238473e+00 0 0 0
77 1 2.7999999999999998e+00 1.0000000000000000e+00 4.1190549394987546e+00 2.3730073739344237e+00 9.4920405331686979e+00 0 1 0
78 1 2.7999999999999998e+00 1.0000000000000000e+00 5.2263694900636111e+00 8.5000607725432822e+00 3.9367285332449358e+00 0 0 0
79 1 2.7999999999999998e+00 1.0000000000000000e+00 1.2733314403962519e+00 1.4001125026397302e+01 1.1696221589699011e+01 0 0 0
80 1 2.7999999999999998e+00 1.0000000000000000e+00 3.4434206804197274e+00 1.3666372919102432e+01 8.2737635591759418e+00 0 -1 0
81 1 2.7999999999999998e+00 1.0000000000000000e+00 8.4495026063439027e-01 9.2203232219974929e+00 9.4557271891857830e+00 1 0 0
82 1 2.7999999999999998e+00 1.0000000000000000e+00 1.2087463361520566e+01 1.2601385352429435e+01 1.3597907412748240e+01 0 0 -1
83 1 2.7999999999999998e+00 1.0000000000000000e+00 6.0886719443610564e-02 6.5071513149748563e+00 9.3821576743031834e+00 1 0 0
84 1 2.7999999999999998e+00 1.0000000000000000e+00 5.1485639581949894e+00 5.0150400460654918e+00 8.7520057528538722e+00 0 0 0
85 1 2.7999999999999998e+00 1.0000000000000000e+00 1.2970515286974488e+01 8.8567597757113621e+00 1.1115261008560225e+01 0 0 0
86 1 2.7999999999999998e+00 1.0000000000000000e+00 7.9823281344289612e+00 1.3336603369338114e+01 5.9224236026016488e+00 0 -1 0
87 1 2.7999999999999998e+00 1.0000000000000000e+00 1.1810277082052407e+01 2.7325537630502774e+00 1.1631716970769173e+01 0 0 0
88 1 2.7999999999999998e+00 1.0000000000000000e+00 1.6424679054859872e+00 1.2000866692064857e+01 9.7426448928702580e+00 1 0 0
89 1 2.7999999999999998e+00 1.0000000000000000e+00 3.4634880657157687e+00 2.9568824064639582e-01 3.3255363103702895e+00 1 0 0
90 1 2.7999999999999998e+00 1.0000000000000000e+00 7.7373507175703171e+00 8.1577169705195995e+00 8.2558434720859015e+00 0 0 0
91 1 2.7999999999999998e+00 1.0000000000000000e+00 1.3219842803988037e+01 1.5762151123234105e-01 1.1679416003375961e+01 0 0 0
92 1 2.7999999999999998e+00 1.0000000000000000e+00 6.5563764536211515e+00 7.0967551401090114e+00 1.3526437676451813e+01 0 0 0
93 1 2.7999999999999998e+00 1.0000000000000000e+00 1.0016765151547553e+01 6.5201123859422534e+00 3.0546008510371716e+00 0 0 0
94 1 2.7999999999999998e+00 1.0000000000000000e+00 1.0234512494442550e+01 1.6602268317357103e+00 2.0264849348007941e+00 0 0 0
95 1 2.7999999999999998e+00 1.0000000000000000e+00 1.2362318522544516e+01 6.7134073139121391e+00 7.8434502131695663e+00 0 0 0
96 1 2.7999999999999998e+00 1.0000000000000000e+00 4.9574527460689088e+00 5.7997006427002953e+00 2.2151138998708140e+00 0 0 0
97 1 2.7999999999999998e+00 1.0000000000000000e+00 6.1478429199570108e+00 1.2218863561645756e-01 4.2582190910093374e+00 0 1 0
98 1 2.7999999999999998e+00 1.0000000000000000e+00 1.1410041305750106e+01 9.8259784665604304e+00 2.7669726186283508e+00 0 0 0
99 1 2.7999999999999998e+00 1.0000000000000000e+00 3.3294229749891966e+00 7.3836065181261787e+00 9.1930555937574248e+00 0 0 0
100 1 2.7999999999999998e+00 1.0000000000000000e+00 7.2515704229931659e+00 5.3202975771208356e+00 1.1469294618026240e+01 0 0 -1
101 2 2.0000000000000000e+00 1.0000000000000000e+00 2.2897072656547186e+00 2.3841543521859023e+00 4.1344391868025108e+00 1 0 0
102 2 2.0000000000000000e+00 1.0000000000000000e+00 8.6611644034771160e+00 1.3770821201250353e+01 1.3824869177612280e+01 0 0 -1
103 2 2.0000000000000000e+00 1.0000000000000000e+00 1.1884201402721768e+01 5.1440876465072058e+00 9.2560490373226134e-01 0 0 1
104 2 2.0000000000000000e+00 1.0000000000000000e+00 3.2647656048478573e+00 8.5457550663005861e+00 5.4031899910681220e+00 0 -1 0
105 2 2.0000000000000000e+00 1.0000000000000000e+00 5.6424029363952650e+00 2.7870552582063981e+00 6.8878713350128349e+00 0 0 0
106 2 2.0000000000000000e+00 1.0000000000000000e+00 4.8069801909242527e+00 1.2104835383034007e+00 5.9413122284993678e+00 0 0 0
107 2 2.0000000000000000e+00 1.0000000000000000e+00 2.3600321547967984e+00 1.3348916711770954e+01 1.7264628181648078e+00 0 -1 1
108 2 2.0000000000000000e+00 1.0000000000000000e+00 9.7142205160925972e+00 6.0429642118322970e+00 3.0410286005568338e-01 0 0 1
109 2 2.0000000000000000e+00 1.0000000000000000e+00 1.2541014466314735e+00 5.1830304838380741e+00 1.3562848068434398e+01 0 0 0
110 2 2.0000000000000000e+00 1.0000000000000000e+00 1.1233340318837884e+01 1.2449765782409520e+01 1.3487409122008680e+00 0 -1 1
111 2 2.0000000000000000e+00 1.0000000000000000e+00 1.0417120345211739e+01 5.4755954279298473e+00 6.0688909931039694e+00 0 1 0
112 2 2.0000000000000000e+00 1.0000000000000000e+00 1.2830832434096461e+01 2.4374713178636651e+00 1.3874725675441667e+01 0 0 0
113 2 2.0000000000000000e+00 1.0000000000000000e+00 3.3080687015229882e+00 5.8184438433084074e+00 4.5746633130830000e-01 0 0 0
114 2 2.0000000000000000e+00 1.0000000000000000e+00 2.7374648083372427e-01 1.1680165027983033e+01 4.2543861353523149e-01 1 0 1
115 2 2.0000000000000000e+00 1.0000000000000000e+00 8.8823157878204206e+00 3.6923032734244163e+00 1.0655879051284371e+01 0 0 0
116 2 2.0000000000000000e+00 1.0000000000000000e+00 7.5958047787821865e+00 8.1697804105219376e+00 5.1284892410772267e+00 0 0 0
117 2 2.0000000000000000e+00 1.0000000000000000e+00 6.3676577294809720e+00 2.2177859659224222e+00 1.0819852905048183e+01 1 0 0
118 2 2.0000000000000000e+00 1.0000000000000000e+00 1.3214137381461125e+01 4.7394172913371779e+00 1.0790343485211922e+01 -1 1 -1
119 2 2.0000000000000000e+00 1.0000000000000000e+00 2.8798798666719030e+00 9.7034690408129443e+00 8.2785892206217255e+00 0 0 0
120 2 2.0000000000000000e+00 1.0000000000000000e+00 1.4263081936699589e+01 3.9275964510874424e+00 1.2589124851595802e+01 0 0 -1
121 2 2.0000000000000000e+00 1.0000000000000000e+00 1.0851514475270315e+01 1.3553698293026279e+01 1.0888694071904128e+01 0 0 0
122 2 2.0000000000000000e+00 1.0000000000000000e+00 1.3077499895429934e+01 1.2284701637307245e+01 3.7265467610572460e+00 0 0 1
123 2 2.0000000000000000e+00 1.0000000000000000e+00 8.4174787143684036e+00 7.4271769317347793e+00 1.1856164352401581e+01 -1 0 -1
124 2 2.0000000000000000e+00 1.0000000000000000e+00 9.7550052570831944e+00 1.4032633610944114e+01 1.3814412307599988e+00 0 0 0
125 2 2.0000000000000000e+00 1.0000000000000000e+00 6.8909107543023156e+00 9.3531028610988933e+00 1.1565721902415552e+01 0 -1 -1
126 2 2.0000000000000000e+00 1.0000000000000000e+00 5.2559231026444685e-02 1.3190365745646462e+01 1.3631850096033896e+01 0 0 -1
127 2 2.0000000000000000e+00 1.0000000000000000e+00 4.1759433536396209e+00 6.5382351405364796e+00 1.3299674606015163e+01 0 0 0
128 2 2.0000000000000000e+00 1.0000000000000000e+00 7.4999442837951245e+00 5.7278436314008951e+00 8.3542952449620422e+00 0 0 0
129 2 2.0000000000000000e+00 1.0000000000000000e+00 2.8964745080739922e+00 1.4023545345548578e+00 1.1823115441261088e+01 0 1 -1
130 2 2.0000000000000000e+00 1.0000000000000000e+00 1.2617471153955648e+01 1.2811334622396535e+00 6.3587403195846210e+00 -1 0 0
131 2 2.0000000000000000e+00 1.0000000000000000e+00 1.2299437307504251e+01 2.9244716490296265e+00 3.5729603222491777e+00 0 0 0
132 2 2.0000000000000000e+00 1.0000000000000000e+00 4.5798945535063833e+00 8.8755638394909475e+00 6.9203459298582768e+00 0 -1 0
133 2 2.0000000000000000e+00 1.0000000000000000e+00 3.1216864802754931e+00 1.2326645723622992e+01 4.2793397863298868e+00 0 0 0
134 2 2.0000000000000000e+00 1.0000000000000000e+00 9.0779607992087623e+00 7.8192788587812934e-01 7.9935246608629553e+00 0 1 0
135 2 2.0000000000000000e+00 1.0000000000000000e+00 7.8592466863329313e-01 1.4270114013005196e+01 5.5223355939120389e-01 0 0 1
136 2 2.0000000000000000e+00 1.0000000000000000e+00 7.9341075741866174e+00 1.7684340472584776e+00 2.7416976929737453e+00 0 0 1
137 2 2.0000000000000000e+00 1.0000000000000000e+00 9.1198804606017081e+00 1.0977150095096006e+01 5.3473472495296326e+00 0 0 0
138 2 2.0000000000000000e+00 1.0000000000000000e+00 1.0353034858325998e+00 3.8233536556554562e+00 5.8848245789738307e+00 1 0 0
139 2 2.0000000000000000e+00 1.0000000000000000e+00 1.1376558270876053e+01 1.1457254238239850e+01 1.1443385669888929e+01 -1 0 0
140 2 2.0000000000000000e+00 1.0000000000000000e+00 7.0144589177255483e+00 2.5140858069335503e+00 8.6879003619705564e-01 0 1 0
141 2 2.0000000000000000e+00 1.0000000000000000e+00 1.1322065902321780e+01 7.9558957203539888e+00 1.3050134445009373e+01 0 0 0
142 2 2.0000000000000000e+00 1.0000000000000000e+00 7.5311368252801882e+00 6.3322072641896403e+00 4.2981169147433045e+00 0 0 0
143 2 2.0000000000000000e+00 1.0000000000000000e+00 2.4481088620125946e+00 5.1983907152038453e+00 9.9995485219231863e+00 1 0 0
144 2 2.0000000000000000e+00 1.0000000000000000e+00 6.1442251310452702e+00 1.0783956531229213e+01 1.2707683485395418e+00 0 0 0
145 2 2.0000000000000000e+00 1.0000000000000000e+00 9.9089955272497523e+00 2.8677730674001229e+00 9.1142970874079712e+00 0 1 0
146 2 2.0000000000000000e+00 1.0000000000000000e+00 2.7014041924140360e+00 7.0315705127477401e-01 1.4012654850552959e+01 0 1 0
147 2 2.0000000000000000e+00 1.0000000000000000e+00 4.1315414600722180e+00 1.2757125322265340e+01 2.4578090676750430e+00 0 -1 0
148 2 2.0000000000000000e+00 1.0000000000000000e+00 1.2925972944078582e+01 1.1107373191354367e-03 4.7862413413475640e+00 0 0 0
149 2 2.0000000000000000e+00 1.0000000000000000e+00 4.2471482251845130e+00 1.0384600669620873e+01 5.5927876290918119e+00 1 -1 0
150 2 2.0000000000000000e+00 1.0000000000000000e+00 3.8730449397955327e+00 1.4417145847462612e+01 1.0513909974382079e+01 0 0 0
151 2 2.0000000000000000e+00 1.0000000000000000e+00 1.4403756470546991e+01 1.0732508576064122e+01 7.8695803939361024e+00 0 0 0
152 2 2.0000000000000000e+00 1.0000000000000000e+00 6.8294094383238662e+00 7.5837608785856645e+00 1.0420151033260115e+01 0 0 0
153 2 2.0000000000000000e+00 1.0000000000000000e+00 1.8700876267884086e+00 1.1719000443556848e+01 2.8204637733225035e+00 0 0 0
154 2 2.0000000000000000e+00 1.0000000000000000e+00 1.0445704673207290e+01 9.5287398609718199e+00 9.7272426878136748e+00 0 0 1
155 2 2.0000000000000000e+00 1.0000000000000000e+00 8.3463354443103643e+00 1.4341372715370534e+01 2.8792665729509745e+00 0 0 0
156 2 2.0000000000000000e+00 1.0000000000000000e+00 2.5470329257182751e+00 1.0175403269406662e+01 4.0588406249212605e+00 1 -1 0
157 2 2.0000000000000000e+00 1.0000000000000000e+00 1.4461538443208758e+01 4.1036745781964941e+00 4.0043972815551019e+00 0 0 0
158 2 2.0000000000000000e+00 1.0000000000000000e+00 1.4280636379886682e+01 1.4786095806317290e+00 7.5867458393865519e+00 0 1 0
159 2 2.0000000000000000e+00 1.0000000000000000e+00 4.7144445383137992e+00 6.3718497257215336e+00 1.1338171541190780e+01 0 0 0
160 2 2.0000000000000000e+00 1.0000000000000000e+00 3.4704889235682566e+00 6.4321222233913229e+00 4.4499634287855709e+00 0 0 0
161 2 2.0000000000000000e+00 1.0000000000000000e+00 3.9953858146170300e+00 1.0503197329282449e+01 2.6094191748473579e+00 0 0 1
162 2 2.0000000000000000e+00 1.0000000000000000e+00 1.0029277275507278e+01 1.2871505104368705e+01 8.9602312876281598e+00 0 -1 0
163 2 2.0000000000000000e+00 1.0000000000000000e+00 5.2187911701058995e+00 1.6640470244649257e+00 1.2711206631146588e+01 0 1 0
164 2 2.0000000000000000e+00 1.0000000000000000e+00 4.6182971841038203e+00 8.5040394467312428e+00 1.2343406245371419e+01 0 0 0
165 2 2.0000000000000000e+00 1.0000000000000000e+00 1.0146179427980044e+01 7.6012030404425781e+00 8.1016119148318548e+00 0 0 0
166 2 2.0000000000000000e+00 1.0000000000000000e+00 4.9135351333756621e+00 1.4358403424479215e+01 1.3816867933768817e+01 0 0 -1
167 2 2.0000000000000000e+00 1.0000000000000000e+00 1.0612403866520232e+01 9.7712966166502415e+00 7.7443977188750042e+00 0 0 0
168 2 2.0000000000000000e+00 1.0000000000000000e+00 1.1455318489089167e+01 9.9659098889314865e+00 1.3343794036896824e+01 -1 -1 -1
169 2 2.0000000000000000e+00 1.0000000000000000e+00 1.0649627021592911e+00 4.1301973462013111e+00 7.1254516954613167e-01 0 0 1
170 2 2.0000000000000000e+00 1.0000000000000000e+00 8.2045760897056326e+00 5.1249225352678724e+00 1.3801757161059587e+01 0 0 0
171 2 2.0000000000000000e+00 1.0000000000000000e+00 4.8847511014583702e+00 1.5600521141484289e+00 6.0295081070495513e-02 0 0 1
172 2 2.0000000000000000e+00 1.0000000000000000e+00 4.4645256175429280e+00 1.0113011138285829e+01 1.3866727870741549e+01 0 0 -1
173 2 2.0000000000000000e+00 1.0000000000000000e+00 3.1172003132633406e+00 9.5058920043631741e+00 1.0293452110178432e+01 1 0 -1
174 2 2.0000000000000000e+00 1.0000000000000000e+00 1.2872244554889980e+00 8.8536359775926599e+00 4.9231604130910807e+00 0 0 0
175 2 2.0000000000000000e+00 1.0000000000000000e+00 4.4501629569994794e+00 1.1785308354885425e+01 6.4564385396342394e-01 0 0 1
176 2 2.0000000000000000e+00 1.0000000000000000e+00 9.6434361388234180e+00 1.1819465178470901e+01 1.3513385578406048e+01 0 0 0
177 2 2.0000000000000000e+00 1.0000000000000000e+00 1.3534692673864370e+01 1.1457787470082193e+01 1.9552396834828059e+00 0 0 0
178 2 2.0000000000000000e+00 1.0000000000000000e+00 3.9495837047630831e+00 1.1388645091167930e+01 9.0203641204229914e+00 0 -1 0
179 2 2.0000000000000000e+00 1.0000000000000000e+00 1.1378371243524949e+01 1.3698388486794157e+00 4.4777470798345940e+00 0 1 0
180 2 2.0000000000000000e+00 1.0000000000000000e+00 1.2063789183619566e+01 4.9520976493936804e+00 3.0154814653777375e+00 0 0 0
181 2 2.0000000000000000e+00 1.0000000000000000e+00 2.3204950622321192e+00 7.5263940034644738e+00 6.8423147428225048e+00 1 0 -1
182 2 2.0000000000000000e+00 1.0000000000000000e+00 1.0247732807581491e+01 7.4878286887389418e+00 1.0270975472653907e+01 0 0 0
183 2 2.0000000000000000e+00 1.0000000000000000e+00 1.4375208130897555e+01 2.3124308482531433e+00 1.0768990258225458e+01 0 0 -1
184 2 2.0000000000000000e+00 1.0000000000000000e+00 1.0919665538669472e+01 1.0623886199459633e+01 5.5724978954182913e-01 0 0 1
185 2 2.0000000000000000e+00 1.0000000000000000e+00 8.5638366766939011e+00 6.7148482267181935e+00 6.2843734874553503e+00 0 0 0
186 2 2.0000000000000000e+00 1.0000000000000000e+00 1.3754240937829891e+01 4.3520549308178342e+00 1.4560772090217959e+01 0 1 -1
187 2 2.0000000000000000e+00 1.0000000000000000e+00 4.4306707625674484e+00 3.0993371829186604e+00 1.7572662741746212e+00 0 1 0
188 2 2.0000000000000000e+00 1.0000000000000000e+00 9.5740955559157044e+00 9.0690180255000623e+00 1.2731510354824369e+00 0 0 0
189 2 2.0000000000000000e+00 1.0000000000000000e+00 2.2868213353562994e-01 5.6210473217615080e+00 6.8987810480640483e+00 0 0 0
190 2 2.0000000000000000e+00 1.0000000000000000e+00 8.5609523455056085e+00 1.4668410730679187e+00 1.4475532961941248e-01 0 0 1
191 2 2.0000000000000000e+00 1.0000000000000000e+00 9.4009227626979683e+00 7.0759983245936409e-01 4.3442199227646379e+00 0 0 0
192 2 2.0000000000000000e+00 1.0000000000000000e+00 6.7699277903325967e+00 8.7261517676175571e-01 1.4011280470888444e+01 0 0 -1
193 2 2.0000000000000000e+00 1.0000000000000000e+00 1.0416894604376617e+01 1.1775998497622037e+01 6.6932361093760209e+00 0 0 0
194 2 2.0000000000000000e+00 1.0000000000000000e+00 1.2145859590186816e+01 4.8626200684770140e+00 1.3398351368408877e+01 -1 1 -1
195 2 2.0000000000000000e+00 1.0000000000000000e+00 5.4217403474504158e+00 1.4066977785236110e+00 2.2854928103184284e+00 1 0 0
196 2 2.0000000000000000e+00 1.0000000000000000e+00 1.2061766857686626e+01 6.6355274107095665e+00 1.0873941452750115e+01 0 0 0
197 2 2.0000000000000000e+00 1.0000000000000000e+00 8.2521990444203244e+00 1.4022682684841403e+01 9.1667590216945971e+00 0 0 0
198 2 2.0000000000000000e+00 1.0000000000000000e+00 1.3289390134267153e+01 4.6094970243426636e-01 1.4416314352105369e+01 -1 1 -1
199 2 2.0000000000000000e+00 1.0000000000000000e+00 9.4658582373424380e+00 7.8323362650688733e+00 1.3840965776150373e+01 0 0 0
200 2 2.0000000000000000e+00 1.0000000000000000e+00 3.7747185825971843e+00 1.4566314144464460e+01 9.7333653542072263e-01 0 0 1

Velocities

1 -4.9980690171927364e-09 -1.8022078752631115e-08 -1.1962974307832903e-08 -2.5927084271366163e-01 -1.5284346751691130e-01 -1.6594041780881605e-01
2 -2.7367231151650003e-08 -1.0198427201146762e-08 6.2746803700495418e-09 -7.0466569890080918e-02 4.8900096876722776e-01 4.5322785000580246e-01
3 2.4916014739432559e-08 1.0865718662740297e-08 -5.7813586148485469e-08 -3.3431864641932652e-02 1.1013364582220085e-01 -9.5155024362762186e-02
4 -5.3064266096566330e-09 -1.0503994917376720e-08 -4.4351912431353156e-10 5.2401327436652989e-02 4.5021096948802703e-03 -6.3998772751435534e-02
5 -1.5197571301412545e-08 1.5745941017587348e-09 -3.6107695658663322e-08 1.7934568198270526e-01 2.9167142568702689e-03 1.9843461684227992e-01
6 -3.0768965324906587e-08 -9.8432083973987397e-11 1.4250473141092917e-08 -8.9954083529453735e-02 1.4441354291862069e-01 -2.6708432712029706e-01
7 9.7087751743991213e-09 -1.0425950078008787e-08 2.5909265800673961e-09 -5.3195986814927362e-02 1.4868257742448879e-01 -4.7607305494190615e-02
8 -3.4637415918510978e-08 1.1859189480634636e-08 -2.7962674759227621e-09 3.2318758369564493e-01 3.6664853099553668e-02 1.2801730095091840e-01
9 1.2591960767975253e-08 3.9022099937827791e-08 9.7431152293951852e-09 -8.1383034033688725e-02 5.2747803167466779e-02 8.8273641131514508e-02
10 -5.8616381304780796e-09 -1.3324033924352247e-08 1.7732672102503588e-08 1.7121849122095217e-01 -1.6759354178753555e-01 1.7308465296210479e-01
11 1.1222130942670474e-08 -8.9398714104489005e-09 1.0332631325449716e-08 -3.7722605328397378e-02 -1.8348046300836046e-01 -1.7195059849017941e-02
12 -1.0006563688617677e-08 1.0723306511132347e-08 -1.0115710457534380e-08 1.1546510655671177e-01 -4.6961517905262110e-02 2.7136075283635724e-01
13 1.1676150987850588e-08 -9.3348641336995717e-09 -9.5068816621799250e-09 -2.0032739877613320e-02 2.3656461658018903e-02 8.9479871522481266e-03
14 -1.3546226318005118e-08 -1.0701451231004259e-08 1.7817568389690655e-08 -2.9194656994867972e-02 -5.0508831357244433e-02 1.1312582249760331e-01
15 5.2140665304998177e-09 1.2192015549174818e-08 2.1932879261831271e-08 -4.0019576512948810e-02 3.1092625479139310e-02 1.4875867297816178e-01
16 -7.2507876823653994e-09 -1.7890757379224227e-08 1.8876682062925081e-08 -3.0749307785779351e-02 1.8615069295346010e-01 4.0837524068726754e-02
17 -1.9641246770385786e-09 -1.0963950785959498e-08 2.5777117584044550e-08 2.4206446281865045e-02 6.5242414204340175e-03 -2.3123822389489217e-02
18 -2.8522356785445226e-09 4.4167521618792056e-08 -3.0267140420986421e-10 -9.9816956445055324e-02 -3.4884926000503941e-02 -1.4874044056966329e-01
19 -9.9461763673077672e-10 -6.3563678590470015e-09 6.5854307506687423e-09 -4.0753750928711904e-02 1.2437892472946820e-02 -1.4554110475782869e-01
20 -1.9232604967079966e-08 -7.3071560554753738e-09 1.2472363233377925e-08 1.7740413984417627e-01 -1.1141939724985098e-01 -2.7653137581757437e-01
21 9.0368937203816138e-09 -6.6837165977269675e-09 -8.3993512296597660e-09 7.8993895299935876e-02 -2.8322168319122369e-02 -2.3297777953020232e-01
22 1.7501625351403943e-08 2.4198810163790877e-09 -6.5780149975344269e-09 1.5962574121430934e-01 3.2667742170641206e-01 1.5825846240651764e-01
23 -1.6818744469145918e-08 -2.4997842257266365e-08 3.2924875999181308e-08 2.2590396115191408e-01 -9.8913533709424517e-02 -2.0051089588658721e-01
24 6.1546634754846246e-09 5.0582777943499120e-09 1.3264662297220623e-08 7.3310343697144509e-02 1.6825835580494337e-02 -7.8161158124107431e-03
25 -2.5052926215087495e-09 -5.8433558487969294e-09 7.4962299164754280e-09 1.0942587839225487e-01 2.5545151092453828e-02 9.0521825736093270e-02
26 -8.1209323555273097e-09 -8.3449470092746858e-09 8.6703406780746501e-09 -1.6830948161510340e-01 2.2279596278682565e-01 2.3503059540048993e-01
27 1.2920736241385069e-08 2.0819765981722864e-08 -4.4031257857855193e-09 -1.1392684993081595e-01 -4.4809196452539148e-02 1.6532291815461408e-01
28 -4.2584506960086514e-09 2.9719136225322973e-08 5.1588435424589416e-09 5.0982158777593080e-02 -1.4811725978654100e-01 1.2433909917474049e-01
29 2.5563647988413638e-08 2.6783338929728408e-09 1.9298275567198183e-08 -1.4556214134713319e-01 -8.1107835326158201e-02 8.5255973511740107e-02