LAMMPS data file via write_data, version 23 Jun 2022, timestep = 1000000

200 atoms
2 atom types

0 14.6381 xlo xhi
0 14.6381 ylo yhi
0 14.6381 zlo zhi
0 0 0 xy xz yz

Atoms # sphere

1 1 2.8 1 8.364452733340235 3.493985409146774 13.633436008062798 0 1 -1
2 1 2.8 1 8.763250295970625 12.549880450621568 5.90241994829701 0 0 0
3 1 2.8 1 2.2307317516183867 4.294533742813909 7.345221002283775 0 0 0
4 1 2.8 1 4.161543226878916 10.233782112323215 0.3948945357132459 0 0 1
5 1 2.8 1 6.272439665235943 5.804919768076136 0.26812067642757204 0 0 1
6 1 2.8 1 12.913718598423003 8.708101006137394 4.286914329680916 0 0 0
7 1 2.8 1 11.3492494398412 7.456796729825704 1.931047448106795 0 0 0
8 1 2.8 1 12.708212974967545 9.904703870016133 7.282753536143261 0 0 0
9 1 2.8 1 12.155673420276647 6.777066728447219 7.831997753213273 0 0 0
10 1 2.8 1 3.963585991404836 2.013679996715764 8.1315459852907 0 0 -1
11 1 2.8 1 4.386876275387568 9.043876029052983 3.921411201972119 1 0 0
12 1 2.8 1 11.150326897617274 9.987928441133233 0.6962318545330979 0 0 0
13 1 2.8 1 5.2249966511363946 7.264682077337137 5.936696159940961 0 0 0
14 1 2.8 1 8.539931623785664 3.878010497340838 7.197785332471509 0 0 0
15 1 2.8 1 6.522045102089234 2.707668060021806 11.287067166637565 0 0 0
16 1 2.8 1 10.761744946554913 4.788687640727652 12.248605560491262 0 0 -1
17 1 2.8 1 11.979289646879794 6.8266044457162725 10.73254737305943 0 0 -1
18 1 2.8 1 13.948701726938555 4.292593615100714 10.911454966791371 -1 1 0
19 1 2.8 1 0.002935195451186449 6.854119604359988 6.059319260328413 0 0 0
20 1 2.8 1 2.1754363095916034 8.202412072623764 11.359425016646508 0 0 0
21 1 2.8 1 3.9140518043230212 7.295059784237332 1.5957732495959955 0 0 1
22 1 2.8 1 9.787372566967274 5.895172580155421 9.154535208493447 0 0 0
23 1 2.8 1 9.82791704838046 8.76201092198222 11.212887780479926 0 0 0
24 1 2.8 1 1.8562809174071229 7.143411895182978 3.6657891434818275 1 0 0
25 1 2.8 1 4.912227306531086 11.937732269999293 11.129397442367909 0 0 0
26 1 2.8 1 7.395090303217781 11.277998509299518 10.012067346713977 0 0 0
27 1 2.8 1 11.806829081180858 4.64402299824681 0.9413948331154974 -1 0 0
28 1 2.8 1 6.097526811512028 11.383619085899834 3.8165422181976165 0 0 1
29 1 2.8 1 7.366618741032655 10.029320852631892 14.438235459810864 0 0 -1
30 1 2.8 1 4.691300195335312 5.393172386612616 3.910638011411952 0 0 0
31 1 2.8 1 7.344124868420694 5.936040567974712 2.851604583788457 0 0 0
32 1 2.8 1 11.438987345161351 3.445033403912945 6.714669816509153 0 0 0
33 1 2.8 1 12.796882474155986 2.0856264108922593 9.559061318862408 -1 0 0
34 1 2.8 1 6.453235853107835 14.46807733163922 11.197459110377023 0 -1 0
35 1 2.8 1 1.3619625012134355 2.6595543718070096 9.807809720536799 1 0 -1
36 1 2.8 1 3.5658177741055903 13.931819256403378 9.019164460433561 0 -1 0
37 1 2.8 1 8.809107817263538 6.619116522088834 6.439568515502736 0 0 0
38 1 2.8 1 13.945875977998623 10.194277843983997 1.1529939297435399 0 0 0
39 1 2.8 1 1.3098850093811434 6.068283366588535 9.592350282919384 1 0 0
40 1 2.8 1 13.851199598807758 8.891603892611831 12.057014777141182 -1 0 -1
41 1 2.8 1 4.321816938371461 13.486614741723784 2.8394861463286096 0 0 0
42 1 2.8 1 2.5050460920795725 3.0213164407640365 4.007151971946158 0 0 0
43 1 2.8 1 3.7066971425231743 4.508945372921255 10.178788515586458 0 0 0
44 1 2.8 1 6.806496045946033 8.860915260795982 2.458273755044547 0 0 0
45 1 2.8 1 4.928314199708951 1.9441186032941393 3.0602787224685852 0 0 0
46 1 2.8 1 1.944421088724014 9.320017638823753 1.8880030478409608 0 0 0
47 1 2.8 1 13.500471666664145 5.980999369828173 3.01736799388882 0 0 0
48 1 2.8 1 9.406072110083233 8.39113674373363 3.7397947539759033 0 0 0
49 1 2.8 1 10.569380148128754 10.454257588506604 5.243370819296297 0 0 0
50 1 2.8 1 13.452944861196064 13.074300443870097 2.8471247198509926 -1 0 0
51 1 2.8 1 10.464175659105383 13.67987602438985 13.149132837792228 0 -1 -1
52 1 2.8 1 14.508787041142472 11.870210348510996 9.102001768447687 0 0 0
53 1 2.8 1 10.72831292573965 12.647582352525859 7.93293163086624 0 0 0
54 1 2.8 1 5.0709131229950115 3.5900464454232104 6.081734929591355 0 0 0
55 1 2.8 1 0.9808237203222921 10.100477540593182 7.208217865499171 0 0 0
56 1 2.8 1 11.012690014829477 1.6327278323770937 14.15019938612931 0 0 -1
57 1 2.8 1 12.205028202053041 10.531314389748033 10.156867235378733 0 0 0
58 1 2.8 1 9.36080532404675 0.3203815943907514 4.114667431606468 0 0 0
59 1 2.8 1 9.201892933654118 9.702042542601546 7.617908973558972 0 0 0
60 1 2.8 1 5.142149472411189 9.069248224950433 10.586657266263197 0 0 0
61 1 2.8 1 10.536170274932145 2.4290877391111168 2.1888554441656978 -1 0 0
62 1 2.8 1 13.345325404899487 1.3139188203257872 6.072181666762369 0 1 0
63 1 2.8 1 11.280571175159142 6.15707909922578 5.078867549919179 0 0 0
64 1 2.8 1 2.2475355156000365 0.7186238145988287 11.759203552235759 0 1 0
65 1 2.8 1 14.34287260934558 8.559741146305166 9.25135300346635 0 0 0
66 1 2.8 1 13.428736390687515 0.23931872200732965 13.120961800502403 0 1 -1
67 1 2.8 1 3.590229266988454 10.972328818947583 8.721262566220862 0 0 0
68 1 2.8 1 2.828820086629782 8.132558390155959 8.098652189787636 0 0 0
69 1 2.8 1 1.3952319787753855 13.347223321052523 13.542890637416864 0 0 0
70 1 2.8 1 14.618748619989676 3.573861646045089 2.0907950577175347 -1 0 1
71 1 2.8 1 14.559808693276159 14.620219520378175 10.363396617763424 0 0 0
72 1 2.8 1 11.81947771994857 13.689031460305488 5.4043471009619735 0 0 0
73 1 2.8 1 14.34442664621929 3.915744039922807 4.969947471362371 0 0 0
74 1 2.8 1 2.134905667906491 12.194866273220677 10.778725666067672 0 0 0
75 1 2.8 1 13.852445692761604 11.727889869332701 5.414236430766827 0 0 0
76 1 2.8 1 6.440909098917675 11.405229353337097 7.351884610581076 0 -1 0
77 1 2.8 1 14.013964430139957 4.257884576204572 7.919724747845417 0 0 0
78 1 2.8 1 9.154302488923022 11.31362599754413 12.303742613297645 1 0 0
79 1 2.8 1 2.1445047626775375 1.015730899024841 6.226271898073126 1 0 0
80 1 2.8 1 5.58878781817973 5.497243763848723 12.048659907386893 0 0 0
81 1 2.8 1 11.70700635613221 13.8604201745591 10.45752161331565 0 -1 0
82 1 2.8 1 14.323119029622907 7.209343109822949 0.3696236507279537 -1 0 1
83 1 2.8 1 11.654573016496254 7.599682671913389 13.514993674184428 0 0 -1
84 1 2.8 1 6.846993894559605 3.1976570271024567 1.3879854712869615 0 0 0
85 1 2.8 1 6.648074132922222 1.2558736985707268 13.721233848881921 0 0 0
86 1 2.8 1 4.030702462930603 13.248236448453708 6.27613169950349 0 -1 0
87 1 2.8 1 2.0102162112665165 11.928018389626875 4.46994208630782 0 0 0
88 1 2.8 1 14.108190165981892 12.03133793987293 11.903716724930744 0 0 -1
89 1 2.8 1 3.3642903577144208 3.991683582055429 13.126067290960732 0 1 0
90 1 2.8 1 7.245821572755007 0.4144264719986349 2.143733317619652 0 0 0
91 1 2.8 1 7.540917206478674 3.3592444806209225 4.202318916295482 0 0 0
92 1 2.8 1 0.38798707203264643 1.148038963464746 3.776088706360483 1 1 0
93 1 2.8 1 4.02179736748653 4.236859851863683 1.4145150396495625 0 0 1
94 1 2.8 1 1.5923611889364382 14.056106259792461 1.6808511800356056 0 0 0
95 1 2.8 1 10.0827176200374 0.8129669462786608 6.783389572557901 0 1 0
96 1 2.8 1 1.2180770175822124 5.671651611566753 12.438045565097395 0 0 -1
97 1 2.8 1 7.214158181230959 1.3490665530926838 6.33781795307042 0 0 0
98 1 2.8 1 9.779504685891109 13.797268178453148 1.5445188132762309 0 0 0
99 1 2.8 1 4.127937940777351 7.571882408395831 13.370534565348558 0 0 0
100 1 2.8 1 6.265188666986124 4.35835397773738 9.03939473859519 0 0 0
101 2 2 1 10.38982608466744 0.86281100665762 9.164568190885593 0 1 -1
102 2 2 1 10.445532269489723 2.7748507365521284 9.82036053322813 0 0 0
103 2 2 1 6.398649801233129 13.724509605789281 6.296271190076997 0 -1 0
104 2 2 1 1.2887808714997262 13.820670355841699 8.240111971647057 1 0 0
105 2 2 1 5.884035479020724 3.5754325602608734 13.755910987728514 0 0 0
106 2 2 1 1.5765645802857886 11.131958834823203 14.558545938825462 0 0 -1
107 2 2 1 8.350147231718063 10.49504722927072 4.327454783864136 1 -1 0
108 2 2 1 0.3519183979951031 10.403757267182533 3.390762061531072 1 0 0
109 2 2 1 5.784021601497454 8.186844681322412 0.36820147277526843 0 0 1
110 2 2 1 8.799668987569225 1.5130582205645742 0.5181760219868393 0 0 0
111 2 2 1 4.725479836924982 14.196914412966128 12.974878817286537 0 0 0
112 2 2 1 7.462760964458412 13.345835895409115 4.0451468928589565 0 0 1
113 2 2 1 0.6750791732628371 8.983802856575526 4.794935964770048 0 0 0
114 2 2 1 12.143604119846078 14.197459958138293 0.563929738375457 0 0 0
115 2 2 1 12.365282767360839 12.07965926626055 13.878674487886082 0 -1 -1
116 2 2 1 14.562786620142123 8.128078496808337 2.6321016980798104 -1 0 0
117 2 2 1 14.531606749579806 2.0335413767790222 11.770404757643027 -1 0 0
118 2 2 1 3.419015958779972 12.504930668935502 0.8268178245316021 0 0 1
119 2 2 1 4.797293425536716 0.6600556731492535 0.5625205294836128 0 1 0
120 2 2 1 10.854338276552498 8.21373415818959 6.2967755759239346 0 0 0
121 2 2 1 10.778205741651357 12.360341891560555 3.2752247660187117 0 0 0
122 2 2 1 0.33296140613730674 0.9636646525806483 7.892988297335428 0 0 0
123 2 2 1 9.186703536492033 5.822272690047249 14.311443639476376 0 0 -1
124 2 2 1 9.449280248582227 12.851537797493423 10.046500699022143 0 0 0
125 2 2 1 9.405826683661967 10.801542642612938 2.2142432728071313 0 0 1
126 2 2 1 5.332335707920895 9.868710626918544 12.871633082369554 0 0 0
127 2 2 1 8.396006782601981 2.61171894899611 9.269046356899104 0 0 0
128 2 2 1 12.840822365280824 2.7562028077416203 12.6553192016209 0 0 0
129 2 2 1 1.1060559202783584 10.43649528729796 12.714172336779598 0 0 0
130 2 2 1 8.926271341523229 2.324738720652511 11.182259960960266 0 1 -1
131 2 2 1 10.021794010632835 4.072554330313707 4.867267762262581 0 0 0
132 2 2 1 9.09394890057073 4.337554360543899 1.3331232800971728 0 0 0
133 2 2 1 1.5475432603833172 10.046337551676686 9.769337040347818 1 0 0
134 2 2 1 7.603573590612373 6.877972886454892 8.52499620500834 0 0 0
135 2 2 1 8.082089950881393 13.56183000820157 12.751625725587168 0 0 0
136 2 2 1 1.8308318558560108 5.225949773765682 2.1743234526236113 0 0 1
137 2 2 1 3.8236739232547956 10.581592221130036 5.73639819371222 0 -1 0
138 2 2 1 2.9139098239619763 0.6139153935868225 3.788679938116898 1 0 0
139 2 2 1 12.384465285435663 2.064597531433772 3.700258502356531 0 0 0
140 2 2 1 7.368936562858604 8.85940824270812 9.32623022624417 0 0 0
141 2 2 1 8.797874217876629 6.220662864187605 12.381607337497478 0 0 0
142 2 2 1 1.8789861190849264 12.31084839428907 6.892348296335436 0 0 0
143 2 2 1 1.265712352890605 11.639581249581347 1.8932919638327397 0 0 0
144 2 2 1 13.324227312720902 5.938589999362765 12.943896893562627 0 0 0
145 2 2 1 7.801627531453255 12.222173344171578 1.8060296339954993 0 0 0
146 2 2 1 6.6822258194809425 5.320119801668473 6.562580318841852 1 0 0
147 2 2 1 13.818396263527967 2.369126333445171 14.598442214773877 0 0 -1
148 2 2 1 3.0651591975652885 0.9916778200531858 14.091290715541797 0 1 0
149 2 2 1 1.6647400634698406 8.453253844768668 13.694578002137982 0 0 0
150 2 2 1 2.9303679629390587 1.8816703495352203 1.6252495896282437 0 1 1
151 2 2 1 7.2732858308971435 7.691380056132505 4.590149098540983 0 0 1
152 2 2 1 4.532424650976816 1.4838549299669108 10.51951304586331 0 0 0
153 2 2 1 9.414211023436813 14.62721408596114 11.050371113206417 0 0 0
154 2 2 1 7.248592776148955 8.412639523573716 6.881190161372158 0 0 0
155 2 2 1 12.371657754778033 10.90011917764359 3.2162728514346135 0 0 0
156 2 2 1 11.188893073729819 1.8101355304305362 11.583831531690448 0 1 -1
157 2 2 1 5.3789688510234654 9.283900330135431 7.818112911479654 0 0 0
158 2 2 1 4.584617695751486 0.9386872165095632 6.0187393581384026 0 0 0
159 2 2 1 1.629734578174879 3.932717656990094 0.18082097521616278 0 0 1
160 2 2 1 7.116546799919473 7.693151980562141 13.563173289213895 0 0 0
161 2 2 1 7.743142933280268 13.523448022321721 0.1819538038306256 0 -1 1
162 2 2 1 3.673042700096051 12.049412466061247 13.390948084935234 0 0 -1
163 2 2 1 11.104383293365053 8.592080910264992 9.184285927710734 0 0 -1
164 2 2 1 11.546295540710425 0.2826359179547676 2.842500081916696 -1 1 0
165 2 2 1 5.669098017677021 13.508871897497585 0.004602835235035212 0 0 1
166 2 2 1 3.3355334275816086 10.38121965075265 12.152503787784672 0 0 0
167 2 2 1 11.708569031714383 12.376675129702589 1.3028159868664606 0 0 0
168 2 2 1 7.816703244851648 13.297611585933849 8.422470422660936 -1 -1 0
169 2 2 1 7.821763015947043 7.0809914179441 10.542546840562308 0 0 0
170 2 2 1 8.168869150492602 7.313806774651969 0.9805161208587476 0 0 0
171 2 2 1 9.903327489512394 5.662018347513715 3.106071152551137 0 0 0
172 2 2 1 7.846553596394605 0.6165096845991961 9.055738771732127 0 0 0
173 2 2 1 2.738607589756129 6.491278484584845 6.301135235266259 1 0 0
174 2 2 1 4.429126073651325 5.420089453055854 7.837066473712552 1 0 0
175 2 2 1 7.8692348251340185 4.746410247026459 10.83121247098448 0 0 0
176 2 2 1 0.6693210452122909 0.9374176278132927 14.448428851368787 1 1 -1
177 2 2 1 2.7569612891078066 8.717508229402663 5.696748844428995 0 0 0
178 2 2 1 5.67608207366498 11.85209836130851 1.3654211215051646 0 0 0
179 2 2 1 6.1199341059895165 0.36889669311036716 4.43980316171358 0 0 0
180 2 2 1 11.921745937467277 4.380988074530343 9.319997639055545 0 0 0
181 2 2 1 11.857410700349517 3.973071400184358 3.9834789847684613 0 0 0
182 2 2 1 0.7533917209804144 13.693106411328968 5.9301251374169 0 -1 0
183 2 2 1 5.315802836804834 6.463257321831268 9.702721239240436 0 0 0
184 2 2 1 1.24963848972858 2.5246304947961757 13.22651898008329 0 1 -1
185 2 2 1 14.280772476165312 4.071535307276626 13.362052549269807 0 0 -1
186 2 2 1 12.138655844178311 0.3175168094212116 7.969929029105558 0 0 0
187 2 2 1 8.91251937634557 1.085740164294439 12.888348705156586 0 0 -1
188 2 2 1 13.63745147432891 0.7446716244454468 1.4548638227912116 -1 1 0
189 2 2 1 13.419302004461507 13.391818547014674 7.262923357825586 0 0 0
190 2 2 1 3.5565066531039924 10.99245525665421 2.791512451757188 0 0 1
191 2 2 1 13.818541379477805 13.110392866527947 0.42805473557989737 -1 0 0
192 2 2 1 2.203987222348199 5.94728120993976 0.23962961785527395 0 1 0
193 2 2 1 5.844361669532164 0.00830352779892062 8.710901805145486 0 0 0
194 2 2 1 7.242155328466952 8.899932095472 11.835225230570542 0 0 0
195 2 2 1 4.458639422787116 1.5585325317075571 12.738386518103107 0 0 0
196 2 2 1 11.83030851450044 9.943282935027637 12.815860277546133 0 0 0
197 2 2 1 9.189653334928634 8.468880990198931 13.812521792345281 0 0 -1
198 2 2 1 6.250514408844311 9.677562956008225 5.6538429297683575 0 -1 0
199 2 2 1 9.147125777128892 11.837178003383706 0.036749302789399294 0 0 1
200 2 2 1 6.475495813356011 11.975562705250699 13.184298563808495 0 -1 -1

Velocities

1 -6.0498003528943766e-12 -1.8086112339901746e-11 -3.9365424481958196e-11 0.02797173695430523 -0.20470902408262792 -0.14726117911548992
2 -1.2687422490753956e-10 5.2514921724910915e-11 -3.500353091026228e-12 -0.003072994942078083 -0.05504648120158545 -0.20750271045322632
3 -3.6655432987240235e-11 -6.395668077302845e-12 6.436089971008719e-11 -0.1634461526513395 -0.10216672291974399 -0.04219578071386931
4 8.37923042642712e-12 9.28979893582105e-12 4.944797807621585e-11 -0.08207474334566817 0.39044423024698705 -0.06777730525887193
5 1.7469264817836296e-11 5.686220078111011e-12 -1.4020808717037586e-11 0.032006990818533455 0.12564246341697133 -0.007397691866368814
6 4.205540055738795e-11 4.3409010105177726e-11 5.7336175592844175e-12 -0.05262851615321476 -0.033407493883858594 -0.13838435170717614
7 -7.299515449429996e-11 4.969790253908616e-11 3.765507425264646e-11 -0.039600419591209114 -0.010617178174248008 0.0519109841954603
8 -3.599579169841382e-11 -2.6450966581493096e-11 3.1291168505404386e-11 0.07405287810889544 -0.04859282432700183 0.03656309572303922
9 -9.037328285945697e-12 -3.6808175320412184e-11 9.749611049422774e-12 0.02427772624782837 -0.09830533529078486 -0.10582269545462783
10 -1.3038706831873753e-11 -6.097571606072254e-11 4.5053612754096795e-11 0.02282227876998302 0.0033656770484851517 0.04671130053039125
11 1.1832642169092349e-11 4.622111984856919e-11 -2.5499488392556972e-11 -0.0006384360078668437 -0.021959613759346186 -0.15958640365675564
12 1.7438922127035534e-11 6.760713085492146e-11 -1.937729770257946e-11 0.24259599775474788 -0.2801871847809829 -0.04856459825082147
13 -2.0954163632058676e-11 -1.1389808392884374e-11 -3.017992403719431e-11 0.021532172707190267 -0.1314502409300053 -0.016087663438581753
14 2.6281629405966104e-11 -3.4425328916775565e-11 4.605741472971695e-13 0.22144057966277297 -0.03285994861842567 0.16035897617399775
15 2.5364334020514613e-11 -9.515668675729788e-12 -3.5753680494126366e-11 0.054763884792511125 0.18507333309592483 0.0619681635810275
16 3.545791113796993e-11 6.541270789317018e-11 -1.608180740637481e-10 -0.18049369633126436 0.297126023867382 0.2575540067134768
17 -3.189335337006546e-12 7.990691515369156e-11 5.173656028985688e-11 -0.055310387631033034 0.018202459892073235 0.17153789332646424
18 6.3278600023025256e-12 -2.281288162873906e-12 1.2911534298310677e-10 0.06857010022317472 -0.05578861885849603 -0.032080459149014716
19 -4.4590897964633526e-12 -7.014649691469657e-11 -1.0889048893753238e-10 0.24964209566230455 0.09626884122758934 -0.07071220074896585
20 -3.808037647839454e-11 2.1933441156453256e-11 2.1255358316759355e-12 -0.04682470642574475 0.059354723108194084 0.018091892448987092
21 2.9659451681697964e-11 -5.052539403291649e-11 -3.154927521380896e-11 0.13802755187337817 -0.10716133078829443 -0.06637425752406823
22 3.605667792774786e-11 4.4767937876434406e-11 3.558577120306986e-11 -0.5843984344118702 0.11280095436404998 0.22479239156509212
23 4.92035771896397e-11 -6.384924979824398e-11 6.1434861820857046e-12 -0.3325216283469319 -0.13908571081520982 -0.0509069515894455
24 1.5192288729622567e-11 1.972205889541819e-11 -8.390428799656615e-12 -0.0091148857680016 -0.2920978566136884 -0.23866929984606156
25 6.13515367803295e-11 -2.2004980305165495e-11 -4.939268598344024e-12 -0.12224220272158626 -0.040576852775425595 0.02154251697356359
26 -4.744090990635675e-11 2.9361334273574808e-12 3.5352534742363944e-11 -0.02145527408302226 0.03929656834269331 0.04841137867148036
27 4.9014375851347165e-11 4.319425216715031e-11 -3.792136412546998e-11 -0.27554048342707255 -0.33674485455571057 -0.11747394320074737
28 -1.5711735059429957e-11 3.485897979963592e-11 6.027558466010232e-11 0.020670584897959508 -0.02570989244309415 0.19558106034605746
29 3.347441211207063e-11 5.882326708244447e-11 8.948090369310861e-12 -0.18542582073551672 0.10213263265548801 -0.1925471854141446
30 4.0366835420405163e-11 8.64059024434933e-11 -6.352602495504011e-11 -0.1128156703552406 0.006287309072720098 0.0792045253415345
31 1.8965949942840726e-11 -1.5461313278631452e-11 -8.418867352575489e-12 0.05026592844258633 0.0725287350668127 0.22484058041602478
32 -3.954456383984669e-12 -1.1371616344068835e-11 -2.9249110480562085e-11 0.18848109776674382 0.03629875935803652 -0.23763082506186578
33 -9.187034428741624e-11 5.870374177793546e-11 -4.343324438663666e-12 0.24679291010765902 -0.20521883562698648 0.0032850743008789136
34 2.9436423609705356e-11 2.5801285481128536e-11 -1.7007587983786567e-11 -0.03735366864077769 -0.21731899528451634 -0.061560241758282994
35 -2.6651553170833274e-11 3.3576377183057446e-11 3.6635957727010567e-11 0.04801308783169213 0.04822793596110097 -0.11117674572446723
36 2.299183323280579e-11 -6.490940640499279e-11 2.8982402903492755e-11 -0.1643339885152264 0.23342124138565779 0.12823541142081596
37 -1.5299440048974855e-12 9.463044519436048e-12 5.254688580450532e-11 0.14113925713937814 -0.14322329562516942 -0.01166072196226409
38 -4.918290856813119e-11 -4.1880852083572244e-11 -3.7353133723297085e-11 0.042833894567034694 0.03541360861280133 -0.02630862861629959
39 -9.087518749815381e-11 4.639210179245351e-11 -2.1458899529417613e-11 0.21714492419080117 0.15588315659470373 0.15956215991659745
40 -1.4795021649093523e-11 3.937251681161659e-11 5.212570318446038e-12 0.042744431763338614 -0.08083601732877421 0.07432454714764819
41 -6.318093602484457e-11 -4.789100855982002e-11 -9.707520130800202e-12 -0.3247584533682174 0.19307946591983516 -0.08787547403756073
42 -1.9433889695286803e-11 3.1021013243965344e-11 1.9513066403785183e-11 0.1610817628059562 0.025203102853479587 0.04022634823105613
43 1.071124952739587e-11 -3.1882113340323755e-11 7.242200070624158e-12 -0.1845696157594842 -0.1828048461622619 -0.15224779285248913
44 -3.441886628998916e-11 6.9410779066645515e-12 1.767410106818999e-11 -0.10282025632381059 0.1837712680344882 -0.16946873554346414
45 -1.9005092611921665e-11 -1.4023963259301892e-11 6.099942885916836e-12 0.1729958373027027 -0.1981680634103058 0.02099194495230406
46 -4.326574253801778e-11 5.304837767271218e-11 3.558704113253162e-11 -0.15088144566160144 -0.15653504051474482 0.09576115362789714
47 4.420545860639353e-11 6.559934679447413e-11 -1.5353911790720607e-11 0.03377165866511129 -0.023913901025748772 0.0851249956993416
48 -2.7251422599994947e-11 1.2709510107137315e-11 -4.828259220867808e-11 -0.3169572360247088 0.2681783532479288 -0.23027588370355626
49 -5.720555973408721e-11 -5.7421704065635627e-11 -1.7236530681291282e-11 0.25940587113506186 -0.14257934822478274 0.11742686368920385
50 3.8048095396472914e-11 -3.880378706543536e-11 -4.586277708791007e-11 -0.27998235143564804 -0.2529655885019399 -0.13421134302108564
51 2.4359026798518937e-11 -3.662009874953801e-12 -2.9005634052900836e-12 -0.17558641120357163 -0.16376006725468836 -0.0336337035173768
52 -3.074269191356019e-11 2.4649427950478073e-11 -4.247522132620426e-11 0.2899443110928771 -0.11345451433355509 -0.18363193983179654
53 -2.753833967903031e-11 -4.246507776919085e-11 -9.806095482931703e-12 0.02225435185233675 -0.0019441197157786699 -0.04852323866304625
54 1.637804808810615e-11 4.022337660822921e-11 1.9622476048103784e-11 -0.09727868496799094 0.15412025045978855 0.07856342578088593
55 3.0044838682902925e-11 2.100109653625148e-11 3.099928347554369e-11 -0.2153858563279587 -0.07037058057344645 -0.021934696136084182
56 2.5358289788317232e-11 3.405733389353172e-12 -1.866306748401633e-11 0.08040599071367058 -0.10462325320379517 -0.05192491153852812
57 4.3592069847702654e-11 1.6051019805319924e-11 -1.3461626276580158e-11 0.08276803886714157 0.2999226891047123 -0.06103482094456915
58 -2.047371810606021e-11 -1.0187461727861061e-10 2.74065894581161e-11 -0.3726787792850118 0.21988705366351594 0.10299086678291847
59 -3.0687275823456927e-11 2.9084675117076603e-11 -5.570105246193464e-11 -0.13245830320060747 0.01649062893123866 0.08499934734749755
60 -1.6381290256351192e-11 2.3198693878990795e-11 3.4388638269167175e-11 -0.07415481911564231 -0.21643018240278772 -0.02021852300435353
61 4.454817991501831e-11 1.727801715824936e-11 -3.5534939216900076e-11 0.6165157670410393 -0.10244618254864245 -0.159655752884365
62 3.564474944597754e-11 -9.57949131001263e-11 -4.509167646532083e-11 0.04030197218750077 0.057320083735385136 -0.11278793475429168
63 -3.018617360478183e-11 4.007650207388803e-12 2.367623896341504e-11 -0.07398855778887276 0.08733639297535095 0.09552511304839734
64 4.597305667307753e-11 -2.7301693369305247e-11 -3.840417110069075e-11 0.2088600374079797 0.03808818162747404 0.07415822004215598
65 3.858727952190997e-11 3.287800227958009e-11 2.382883635751109e-11 -0.11480162118738685 0.06522896766042582 -0.18405878907216502
66 3.7441935607086425e-11 -1.5868988377197038e-11 2.0305728273783265e-11 -0.16762822284615933 0.1769243152534774 -0.11407696856538654
67 -3.689889100438377e-11 -5.386570615462193e-11 2.7230751093191163e-11 -0.08716582447971608 0.04999200542147396 -0.02801030611316084
68 -2.6609647910437652e-11 -1.0809258111917581e-10 -8.074740986402834e-11 0.1358726073591062 -0.12414564103343276 -0.09914725604037425
69 7.868180620237244e-12 -5.7197745823557656e-11 4.574184006868861e-11 -0.09660932062191863 -0.08970271467741109 -0.08087137115740742
70 5.342026566984001e-12 -6.063991098425578e-11 1.4582945888826723e-11 -0.11731497783624448 0.216547986407161 -0.18513220978312975
71 7.815365127375512e-11 8.329423466345942e-11 -3.254447329854826e-11 0.07059533417055408 -0.1647015448802598 0.10081464491731129
72 -3.588317677403877e-11 5.071507297799759e-11 1.825640656376521e-11 -0.09100733548426124 0.0998406329033205 -0.17641251938529703
73 -1.0385950204079177e-11 -1.4517982430387766e-11 -2.7994673493217137e-11 0.06272059237544438 -0.18580815945781992 0.03697394588421242
74 -2.2235556617986745e-11 -5.5407484646107236e-11 7.89750516422645e-11 0.11266462879381554 0.04359797838265848 -0.01502452988645123
75 7.566526018275098e-11 2.3993373867763248e-11 -8.322705268928941e-11 0.2799881924276441 0.11826297529977084 -0.045866484206170406
76 2.482942484605244e-11 -3.384708167130539e-11 3.243220137504096e-11 0.030290795570707317 -0.002406353336631619 0.24644896227225757
77 -2.2121117208393397e-11 7.047807950733573e-11 8.17470955102818e-12 -0.15580973376459756 0.039789359107861515 0.18505278388772245
78 -1.4638887341485742e-11 -3.501454743210711e-11 -3.3675479265091516e-12 0.158182201217874 -0.042691133183705474 0.06259168350827643
79 3.879589418917217e-11 -5.7923033409081337e-11 3.127317572396417e-12 -0.00916308553718729 -0.10032177955698746 0.07534094178441658
80 6.275658590406657e-11 2.197316785938588e-11 1.5707217566485695e-11 -0.057406482087336994 -0.023948681381631205 0.07903562667718468
81 -1.7141026926820925e-12 4.911807036623668e-11 3.9058676449649155e-11 0.2218385564330816 0.0028371135866480345 0.016641635479412314
82 -2.665676941723951e-11 3.332964873933114e-11 -1.6613427206775518e-12 0.03916632964133586 -0.02425682012645634 -0.011356695116871072
83 2.61251071444206e-11 3.2240276137536924e-11 4.348657744846486e-11 -0.07538972162329702 0.01748552461327877 -0.12041766539378072
84 5.3993862189977775e-11 -3.419995727645204e-11 2.1750745721744812e-12 0.05507817277434582 -0.001049303533857864 0.21097074738867716
85 -1.3850503700276652e-11 -2.2890083100442597e-11 3.544315465702892e-11 0.018476976914695596 0.03920901920042916 -0.1257004567639162
86 -4.049749820570971e-12 -2.2974088396905786e-11 -1.3380829209671469e-11 0.29155462351959704 -0.07213476782809673 0.2664384641837156
87 -3.1025025578857143e-12 -6.821121261332042e-11 5.0979293004002217e-11 0.020853091207989012 0.12749369974329078 -0.10470335604919925
88 -1.5375541747182325e-12 2.5667040194922233e-11 1.1453844331013753e-11 -0.08297298441186998 -0.011225429523256376 -0.013641677150916525
89 9.1399249334982e-12 5.711137831223442e-11 -1.458596592342135e-11 0.17136234253520005 0.1619692810606614 0.0009216659550121155
90 3.2000796784196973e-11 4.7488035224961744e-11 3.894018268623717e-11 0.12079267602550907 -0.08395145772189516 -0.18004595168700335
91 8.72098307006832e-11 -6.331922862644129e-12 -3.112500174193448e-11 -0.10536828221610806 -0.024011544151301162 0.023034689596664798
92 -2.8039058893664905e-11 -8.822736131207045e-11 3.559538537976e-11 0.051195023614958604 -0.07521745033006122 -0.0743369621587713
93 -1.954905301042427e-11 1.5707357374092486e-11 1.0874987266965026e-11 -0.0848880553423565 0.2256362893198619 0.055622757435888404
94 -6.977286546370105e-11 3.80285939472729e-11 -5.226681668716953e-11 -0.0482921926223701 -0.11755299623582288 0.22126919608305537
95 3.331712883514213e-11 8.857708968004379e-11 1.7894367674632138e-11 -0.17077305885250388 -0.1987306790105262 -0.1421767171923308
96 -3.7000825077508705e-12 7.065709802332862e-12 8.225132760717994e-12 -0.019425946168340404 -0.084209282257704 -0.03053064412050014
97 4.5344150719464636e-11 -5.0533350316605454e-11 -2.3570304956152142e-11 0.03572665430918799 0.4472366191778743 -0.03730318599633328
98 -3.882185752479776e-11 -7.51644906750717e-11 9.367820189026765e-12 0.2791510558761948 0.10088480391574599 0.09545064668904346
99 2.26149673101229e-11 5.527972345079928e-11 -1.20981373700112e-11 -0.08237614998581053 0.015277179359620347 -0.10047017546911508
100 3.0255248992434675e-11 5.930245256817854e-11 2.918517775719185e-11 0.12954726347074844 -0.2993037825670519 -0.27791799055024907
101 4.888022186358938e-19 9.291552969407964e-19 4.449640173665273e-18 0.01692995172510038 0.41824241313923566 0.19525142444650706
102 6.458323464535637e-20 -1.9532642992890838e-19 7.271255626148685e-20 -0.01117906962033358 0.07546604499724713 -0.05378666222576556
103 1.2455257906041403e-18 -5.363175802212097e-19 -3.10757932800696e-20 -0.09806613383820213 0.2590930827326501 -0.20347791462472192
104 7.733590037977634e-19 3.3826020743329326e-19 -3.3482508992499857e-19 0.3572001358619702 0.7872421566322476 -0.6196442673443094
105 1.1184563787731445e-19 1.3731066360521299e-19 -9.217122744875529e-21 -0.03578649593844173 -0.054083231614143114 0.07644050036134895
106 -1.1370725266247513e-20 -9.363745806840057e-20 -1.7088064013992166e-19 0.16309749687142897 -0.440054044297481 0.4764836697303328
107 -1.8401429764836208e-19 -1.0172692277230037e-19 -1.6842434844080368e-19 0.2966673058254583 0.09751576103392812 -0.07234466681349486
108 -8.765842307124279e-21 3.9429027108846273e-20 2.2933935862578497e-19 -0.1755562019882378 0.2972508923165563 -0.6123800307548586
109 2.957129209002627e-18 7.570505942494139e-19 -1.3708316971162157e-18 0.008493490198122492 -0.21182891134222748 0.070871445345281
110 -1.0466965678775712e-18 5.323194524669238e-19 3.6705223884941965e-20 -0.4914531765914442 0.1366504086135525 0.0569991115325841
111 -3.721549028549741e-21 6.99037875304732e-20 -2.4453287875335383e-19 0.00459033342842945 -0.042143170934980274 -0.009248393474092498
112 -2.7604762923936173e-19 4.883479150546553e-18 -3.2398123510154216e-18 -0.06263831391591325 0.08791527164341846 0.08176157582203772
113 1.379274833653525e-19 1.6851270632807945e-20 1.8792148982507103e-19 0.0988464516499012 0.09761710851432222 0.20513945888213508
114 9.127963337122766e-20 -4.838411439037592e-20 2.564033888326894e-19 0.30105657686443243 -0.07485964044074842 -0.2925558828191831
115 -7.754258212966759e-20 -9.444581820800556e-20 8.364826225675322e-20 0.2743789518085935 -0.02656774232628225 0.2671441968143292