LAMMPS data file via write_data, version 5 Jun 2019, timestep = 1000000

200 atoms
2 atom types

0.0000000000000000e+00 1.4638100000000000e+01 xlo xhi
0.0000000000000000e+00 1.4638100000000000e+01 ylo yhi
0.0000000000000000e+00 1.4638100000000000e+01 zlo zhi
0.0000000000000000e+00 0.0000000000000000e+00 0.0000000000000000e+00 xy xz yz

Atoms # sphere
# blah
1 1 2.7999999999999998e+00 1.0000000000000000e+00 1.6089724671519627e+00 1.0281540874208286e+01 1.3743320314238899e+01 1 -1 -1
2 1 2.7999999999999998e+00 1.0000000000000000e+00 1.1550099244556382e+00 3.3354736084900489e+00 8.5189473840839991e+00 0 0 0
3 1 2.7999999999999998e+00 1.0000000000000000e+00 1.0211663178081922e+01 1.3632853721712753e+01 5.6801203031074596e+00 0 0 0
4 1 2.7999999999999998e+00 1.0000000000000000e+00 5.2381835375368855e+00 8.1930272713825261e+00 3.0583109628278717e+00 0 0 0
5 1 2.7999999999999998e+00 1.0000000000000000e+00 1.0473829112796325e+01 3.1615432054421264e+00 3.4932475705873181e+00 0 0 0
6 1 2.7999999999999998e+00 1.0000000000000000e+00 5.5245052126602987e+00 1.2311056565288172e+01 4.8540709885025066e+00 0 0 0
7 1 2.7999999999999998e+00 1.0000000000000000e+00 1.4695443623700366e+00 2.6489239202570369e-01 4.0395766715771417e+00 1 0 0
8 1 2.7999999999999998e+00 1.0000000000000000e+00 7.7235938799929000e+00 2.4921190851770980e+00 4.0924909182883651e+00 0 1 1
9 1 2.7999999999999998e+00 1.0000000000000000e+00 1.2872664431338071e+01 6.1345766938929849e+00 1.1350332721095949e+01 0 0 0
10 1 2.7999999999999998e+00 1.0000000000000000e+00 2.5474522928833179e+00 8.2874278599234987e+00 5.9606178623499684e+00 0 0 0
11 1 2.7999999999999998e+00 1.0000000000000000e+00 1.1967171235330753e+01 5.4861664921016748e+00 6.0195196888985683e+00 0 1 0
12 1 2.7999999999999998e+00 1.0000000000000000e+00 1.3400833187889065e+01 1.2697678449961337e+01 1.6668373485319781e+00 0 0 0
13 1 2.7999999999999998e+00 1.0000000000000000e+00 2.7799907596773532e+00 2.3727878359573324e+00 6.1240637713381041e+00 0 0 0
14 1 2.7999999999999998e+00 1.0000000000000000e+00 7.4416011401098237e+00 4.5086263818750210e+00 1.3974564980974264e+01 0 0 0
15 1 2.7999999999999998e+00 1.0000000000000000e+00 1.0600899914965899e+01 4.4674309209235989e+00 1.3663231291077338e+01 0 0 0
16 1 2.7999999999999998e+00 1.0000000000000000e+00 9.2460482921596281e+00 7.5685083882581061e-01 1.0865453131160987e+01 0 0 0
17 1 2.7999999999999998e+00 1.0000000000000000e+00 7.0121578958021988e+00 9.8152782648979056e+00 4.5337196040712486e+00 0 0 0
18 1 2.7999999999999998e+00 1.0000000000000000e+00 1.0043363896371204e+01 1.0308840839622352e+01 1.1676625147750675e+01 0 0 0
19 1 2.7999999999999998e+00 1.0000000000000000e+00 6.8683513347684366e+00 7.5082219294535895e+00 7.7382551409790041e+00 0 0 0
20 1 2.7999999999999998e+00 1.0000000000000000e+00 1.0924314550150415e+01 5.3368383038548846e+00 1.6793947604877804e+00 -1 0 0
21 1 2.7999999999999998e+00 1.0000000000000000e+00 2.3908568510505361e+00 5.5059364166319451e+00 5.0154151137860463e+00 1 0 0
22 1 2.7999999999999998e+00 1.0000000000000000e+00 7.6030447182219225e+00 9.7006931988031617e+00 9.7876707173789850e+00 0 0 0
23 1 2.7999999999999998e+00 1.0000000000000000e+00 5.5995976265564558e+00 4.4570919842656309e+00 8.6008736916627981e+00 0 0 0
24 1 2.7999999999999998e+00 1.0000000000000000e+00 1.4071092940432132e+01 7.1846171059100330e+00 7.0366217833334055e+00 0 0 0
25 1 2.7999999999999998e+00 1.0000000000000000e+00 6.8391419218542211e+00 5.9286341070484749e-01 1.3182623209809341e+01 0 0 0
26 1 2.7999999999999998e+00 1.0000000000000000e+00 8.2928317980050714e+00 1.2920606657078519e+01 1.1967758917693018e+01 0 0 -1
27 1 2.7999999999999998e+00 1.0000000000000000e+00 8.8541864629974896e+00 7.0960572790975878e+00 1.6256332745706939e-01 0 0 0
28 1 2.7999999999999998e+00 1.0000000000000000e+00 3.4240817849834784e+00 1.3928805706748660e+01 5.9728784017222640e+00 0 0 1
29 1 2.7999999999999998e+00 1.0000000000000000e+00 3.0802412982387755e+00 1.0558386634439819e+01 3.0684599686033969e+00 0 0 0
30 1 2.7999999999999998e+00 1.0000000000000000e+00 1.2789933268611161e+01 8.1411742681204524e-01 1.1527927642880036e+00 0 0 1
31 1 2.7999999999999998e+00 1.0000000000000000e+00 1.3026449461962130e+01 6.5941254100051889e+00 1.4117719340399614e+01 0 0 0
32 1 2.7999999999999998e+00 1.0000000000000000e+00 6.5252875502446595e-01 5.8277501400076117e+00 9.8042599859134842e+00 1 0 0
33 1 2.7999999999999998e+00 1.0000000000000000e+00 1.0886655710005078e+01 1.0643185907503309e+01 5.8709254895819951e+00 0 0 0
34 1 2.7999999999999998e+00 1.0000000000000000e+00 5.9248810561822438e+00 7.1317707829036037e+00 3.6832762976456734e-01 0 0 0
35 1 2.7999999999999998e+00 1.0000000000000000e+00 2.4436000790288306e+00 1.1084623580502910e+01 6.1876644664662157e+00 0 0 0
36 1 2.7999999999999998e+00 1.0000000000000000e+00 5.3923968796108097e+00 1.1537098340764020e+01 1.0482411414422808e+01 0 0 0
37 1 2.7999999999999998e+00 1.0000000000000000e+00 2.4211742787389667e+00 2.6547690090043790e+00 1.3080179437717248e+01 0 0 -1
38 1 2.7999999999999998e+00 1.0000000000000000e+00 8.5040095796429438e-01 7.7029232771611325e+00 1.2745572214743689e+01 0 0 0
39 1 2.7999999999999998e+00 1.0000000000000000e+00 4.4206570793791782e+00 1.1059541707960996e+01 1.3117202456576418e+01 0 0 -1
40 1 2.7999999999999998e+00 1.0000000000000000e+00 3.4357756054066564e+00 5.6462488418879548e+00 2.3340843277963699e+00 0 0 0
41 1 2.7999999999999998e+00 1.0000000000000000e+00 4.8911520088945855e+00 3.9462527100481344e+00 4.0182892822893512e+00 0 0 0
42 1 2.7999999999999998e+00 1.0000000000000000e+00 3.8850991381569909e-02 1.4614155181262627e+00 6.3416452793698959e+00 1 0 0
43 1 2.7999999999999998e+00 1.0000000000000000e+00 2.9355322294068427e+00 5.7737312320391148e+00 1.1575106702780547e+01 0 0 0
44 1 2.7999999999999998e+00 1.0000000000000000e+00 2.0290717198168311e+00 5.1093957258392830e-01 8.0841193884006337e+00 0 0 0
45 1 2.7999999999999998e+00 1.0000000000000000e+00 2.5208491913077871e+00 2.6628951132531267e+00 3.0205907950805866e+00 1 0 0
46 1 2.7999999999999998e+00 1.0000000000000000e+00 9.4377572607142444e+00 6.0526210302069678e+00 4.5509860435195009e+00 -1 0 0
47 1 2.7999999999999998e+00 1.0000000000000000e+00 1.4523989545466002e+01 4.2562641246779345e+00 5.9151894711781541e+00 0 0 0
48 1 2.7999999999999998e+00 1.0000000000000000e+00 7.6475655408735488e+00 9.1088065446034978e+00 1.8010899663511122e+00 0 0 0
49 1 2.7999999999999998e+00 1.0000000000000000e+00 9.8455451144393393e+00 1.0655685647390088e+01 3.0717688728525343e+00 0 0 0
50 1 2.7999999999999998e+00 1.0000000000000000e+00 1.2650368515709875e+01 9.9038170813105015e+00 2.4321817552304870e+00 -1 0 0
51 1 2.7999999999999998e+00 1.0000000000000000e+00 1.0382658269736918e+01 2.7622566010166860e+00 8.4117677994090325e+00 0 1 0
52 1 2.7999999999999998e+00 1.0000000000000000e+00 4.1587357398793410e+00 1.4230474094022265e+01 1.4005442444985791e-01 0 -1 0
53 1 2.7999999999999998e+00 1.0000000000000000e+00 4.8856409298242660e+00 1.1348153384123512e+00 8.1098776316363725e+00 0 0 0
54 1 2.7999999999999998e+00 1.0000000000000000e+00 6.8417508071969451e+00 4.4783569461461417e+00 5.9858782605721901e+00 0 0 0
55 1 2.7999999999999998e+00 1.0000000000000000e+00 5.2858193066023906e-01 4.8602504898860603e+00 1.2972022352224991e+01 0 0 -1
56 1 2.7999999999999998e+00 1.0000000000000000e+00 1.3655878735494371e+01 1.1438643854005837e+01 4.6764793107482250e+00 -1 0 0
57 1 2.7999999999999998e+00 1.0000000000000000e+00 1.3120248254199996e+01 9.5408709977981463e+00 1.3945312268274600e+01 0 0 -1
58 1 2.7999999999999998e+00 1.0000000000000000e+00 5.8153215786323786e-01 9.2374869792473415e+00 3.9220547323023913e+00 0 0 0
59 1 2.7999999999999998e+00 1.0000000000000000e+00 5.3081783069628505e+00 3.3517559824065266e+00 1.1674865959997637e+01 0 0 0
60 1 2.7999999999999998e+00 1.0000000000000000e+00 1.3351850532382564e+01 1.4309471433993075e+01 4.1481259048683992e+00 -1 0 0
61 1 2.7999999999999998e+00 1.0000000000000000e+00 1.0835207507164744e+01 1.3009746007913678e+00 1.3334344496937586e+01 0 0 -1
62 1 2.7999999999999998e+00 1.0000000000000000e+00 1.3247197978803316e+01 1.3415212761758353e+00 8.8292183917148126e+00 0 1 0
63 1 2.7999999999999998e+00 1.0000000000000000e+00 7.7403422533283743e+00 1.0935973777451977e+01 7.2326211526838708e+00 0 0 0
64 1 2.7999999999999998e+00 1.0000000000000000e+00 9.3150408956277904e+00 1.3794242898525548e+01 1.4507811577046864e+01 0 -1 -1
65 1 2.7999999999999998e+00 1.0000000000000000e+00 1.3005359864709208e+01 1.0872968970583010e+01 7.8718887042831298e+00 -1 0 0
66 1 2.7999999999999998e+00 1.0000000000000000e+00 1.4243416190888814e+01 2.3543568180797942e+00 3.3338499844622427e+00 0 0 0
67 1 2.7999999999999998e+00 1.0000000000000000e+00 8.2431941264044468e+00 1.4371865142061342e+01 8.2241646679200073e+00 0 0 0
68 1 2.7999999999999998e+00 1.0000000000000000e+00 6.8686627962447959e+00 9.9289973883711288e-02 5.4381897103941146e+00 0 0 0
69 1 2.7999999999999998e+00 1.0000000000000000e+00 2.3798027945465705e+00 1.0528028423009017e+01 9.1872024135422041e+00 0 0 0
70 1 2.7999999999999998e+00 1.0000000000000000e+00 2.9762726471756107e+00 5.5485723592949583e+00 8.2412520484968219e+00 0 0 0
71 1 2.7999999999999998e+00 1.0000000000000000e+00 1.6354479276317897e+00 7.0148094082899692e-01 1.1895738052205442e+00 0 0 0
72 1 2.7999999999999998e+00 1.0000000000000000e+00 9.0924138078016021e+00 1.3367082664494108e+01 2.9821886917793736e+00 0 0 0
73 1 2.7999999999999998e+00 1.0000000000000000e+00 9.3559198952760898e+00 8.2371994372478632e+00 6.4218006098517657e+00 0 0 0
74 1 2.7999999999999998e+00 1.0000000000000000e+00 1.4389837466165707e+01 2.1487833643884473e+00 1.3860175508249057e+01 -1 1 0
75 1 2.7999999999999998e+00 1.0000000000000000e+00 1.1417309923266133e+01 7.3192358709037109e+00 8.2674941262589634e+00 0 0 0
76 1 2.7999999999999998e+00 1.0000000000000000e+00 1.0041109182422764e+01 9.9132169530384981e+00 1.4478932624608138e+01 0 0 -1
77 1 2.7999999999999998e+00 1.0000000000000000e+00 8.0873438684749974e+00 4.1146018623324014e+00 9.9703607084120751e+00 0 1 0
78 1 2.7999999999999998e+00 1.0000000000000000e+00 4.9892882664212248e+00 1.0017522740320114e+01 8.0792915040756466e+00 0 0 0
79 1 2.7999999999999998e+00 1.0000000000000000e+00 1.2053344429828512e+01 1.1994986396555610e+01 1.0343612119486021e+01 -1 0 0
80 1 2.7999999999999998e+00 1.0000000000000000e+00 1.4626196346124550e+01 1.3642143059527864e+01 9.5714183968501523e+00 -1 -1 0
81 1 2.7999999999999998e+00 1.0000000000000000e+00 1.0181530164565860e+01 1.0230413657561805e+01 8.6473431413838586e+00 0 0 0
82 1 2.7999999999999998e+00 1.0000000000000000e+00 1.4109543134093014e+01 1.1504479286026786e+01 1.2207739790936754e+01 0 0 -1
83 1 2.7999999999999998e+00 1.0000000000000000e+00 1.3076468176319425e+01 9.3142407740528110e+00 1.0780486405905352e+01 0 0 0
84 1 2.7999999999999998e+00 1.0000000000000000e+00 5.5436105228354231e+00 6.7251505742512636e+00 1.0619795382409604e+01 0 0 0
85 1 2.7999999999999998e+00 1.0000000000000000e+00 1.2714562720740341e+01 1.3846594231585925e+01 7.0668677725051881e+00 0 0 0
86 1 2.7999999999999998e+00 1.0000000000000000e+00 5.7156881833672202e+00 1.3122690290149478e+01 7.5508347700261114e+00 0 -1 0
87 1 2.7999999999999998e+00 1.0000000000000000e+00 1.3196032188235066e+01 4.4363756746621998e+00 8.4618774201466103e+00 0 0 0
88 1 2.7999999999999998e+00 1.0000000000000000e+00 5.0694961844295805e-01 8.4760257414760485e+00 9.5960778844941963e-01 1 0 1
89 1 2.7999999999999998e+00 1.0000000000000000e+00 4.9942468688996016e+00 6.7775599420866985e+00 5.4760040452293675e+00 1 0 0
90 1 2.7999999999999998e+00 1.0000000000000000e+00 1.1482250369310021e+01 3.7068927066015509e+00 1.1040613951702531e+01 0 0 0
91 1 2.7999999999999998e+00 1.0000000000000000e+00 1.8312340333526584e+00 7.9535042504394593e-01 1.0986266763992665e+01 1 0 0
92 1 2.7999999999999998e+00 1.0000000000000000e+00 6.6692674636960918e+00 1.2613366738280730e+01 1.6317399245044850e-01 0 -1 1
93 1 2.7999999999999998e+00 1.0000000000000000e+00 1.2641531155090304e+01 8.5896751549731380e+00 4.9318724899885957e+00 0 0 0
94 1 2.7999999999999998e+00 1.0000000000000000e+00 1.4357031691803897e+01 6.4498453851062001e+00 4.1392175936002511e+00 0 0 0
95 1 2.7999999999999998e+00 1.0000000000000000e+00 1.4380711848531869e+01 3.0482997954259186e+00 1.0930878643992076e+01 0 0 0
96 1 2.7999999999999998e+00 1.0000000000000000e+00 6.2891732046540776e+00 1.4065849218868767e+01 2.7462262392101953e+00 0 -1 0
97 1 2.7999999999999998e+00 1.0000000000000000e+00 9.1212204711080229e+00 5.3205639729233267e+00 7.6571162864994395e+00 0 1 0
98 1 2.7999999999999998e+00 1.0000000000000000e+00 3.5177353938966411e+00 8.6344988339396718e+00 5.9933543202985773e-01 0 0 0
99 1 2.7999999999999998e+00 1.0000000000000000e+00 6.0653094384669402e+00 8.6681843822270519e+00 1.2659211072891511e+01 0 0 0
100 1 2.7999999999999998e+00 1.0000000000000000e+00 8.7001308035594125e+00 1.8639114748327601e+00 5.5293506524389746e-01 0 0 0
101 2 2.0000000000000000e+00 1.0000000000000000e+00 5.8846167317975269e+00 2.2391209151752429e+00 6.1239535813392232e+00 1 0 0
102 2 2.0000000000000000e+00 1.0000000000000000e+00 7.5487497286000771e+00 1.2419046446473692e+01 9.5695138072794084e+00 0 0 -1
103 2 2.0000000000000000e+00 1.0000000000000000e+00 3.8657567747578838e+00 6.2004001388947234e+00 1.4108671896766285e+01 1 0 0
104 2 2.0000000000000000e+00 1.0000000000000000e+00 4.3005429090176406e-01 1.2114149854201582e+01 7.6583461323023911e+00 0 -1 0
105 2 2.0000000000000000e+00 1.0000000000000000e+00 5.1900901956162198e+00 1.6541633945673229e+00 2.5676858868763217e+00 0 0 0
106 2 2.0000000000000000e+00 1.0000000000000000e+00 1.0190822417317855e+00 1.2245648789144143e+01 2.9242437443885372e+00 0 -1 0
107 2 2.0000000000000000e+00 1.0000000000000000e+00 3.5597066290769681e+00 4.5540413543574937e-01 2.8225089663855178e+00 0 0 1
108 2 2.0000000000000000e+00 1.0000000000000000e+00 5.6942648331320829e+00 2.8126235726712965e+00 1.4196145352666999e+01 1 0 0
109 2 2.0000000000000000e+00 1.0000000000000000e+00 4.4861708491076575e+00 1.3333278071300552e+00 1.2753396933047549e+01 0 0 0
110 2 2.0000000000000000e+00 1.0000000000000000e+00 1.1609163429698535e+01 1.1726561607754620e+01 1.3358111271997181e+01 0 -1 0
111 2 2.0000000000000000e+00 1.0000000000000000e+00 7.3903128097527855e+00 2.6607025059509768e+00 8.0404330149012022e+00 0 1 0
112 2 2.0000000000000000e+00 1.0000000000000000e+00 8.7456805244934550e+00 8.6070689467955201e+00 1.2845810532410724e+01 0 0 0
113 2 2.0000000000000000e+00 1.0000000000000000e+00 1.0650541278305985e+01 1.9191192464489337e-01 8.8993739519848578e+00 0 0 0
114 2 2.0000000000000000e+00 1.0000000000000000e+00 1.4618648937633594e+01 9.1513029106998385e+00 8.7635090893203333e+00 0 0 0
115 2 2.0000000000000000e+00 1.0000000000000000e+00 6.7113886981481281e+00 1.4182564242398788e+01 1.0660482734926298e+01 0 -1 0
116 2 2.0000000000000000e+00 1.0000000000000000e+00 5.2133479591636709e+00 1.1721159002720210e+01 2.3825631246493404e+00 0 0 0
117 2 2.0000000000000000e+00 1.0000000000000000e+00 9.8662925199823039e+00 3.5486093250934405e+00 6.1571896864791640e+00 1 0 0
118 2 2.0000000000000000e+00 1.0000000000000000e+00 2.3720836524591915e+00 1.3218168075515347e+01 1.0118683620611861e+01 0 0 -1
119 2 2.0000000000000000e+00 1.0000000000000000e+00 4.4284412420834629e+00 8.9578356597882944e+00 1.0322338204426211e+01 0 0 0
120 2 2.0000000000000000e+00 1.0000000000000000e+00 2.4807918122167036e-01 5.7506164416006085e+00 1.4116827797716407e+00 1 0 0
121 2 2.0000000000000000e+00 1.0000000000000000e+00 1.1757640184656784e+01 1.3717383035676892e+01 1.4288578324994679e+01 0 0 0
122 2 2.0000000000000000e+00 1.0000000000000000e+00 1.0963933146049344e+01 1.2345893322061881e+01 1.1437338069645504e+00 0 0 1
123 2 2.0000000000000000e+00 1.0000000000000000e+00 1.2876213412099984e+01 4.1556638355566520e+00 1.4378413557897380e+01 -1 0 -1
124 2 2.0000000000000000e+00 1.0000000000000000e+00 1.1015100623496211e+01 1.3177009936700643e+00 6.5470732098285849e+00 0 1 -1
125 2 2.0000000000000000e+00 1.0000000000000000e+00 1.2398410870432798e-01 1.1165725538703326e+01 9.7826010474155609e+00 0 -1 -1
126 2 2.0000000000000000e+00 1.0000000000000000e+00 2.7183205838233331e+00 7.5808697425573808e+00 1.0005563318120593e+01 0 0 -1
127 2 2.0000000000000000e+00 1.0000000000000000e+00 4.4137555076027244e+00 4.3772917429372082e+00 6.3938008170985041e+00 0 0 1
128 2 2.0000000000000000e+00 1.0000000000000000e+00 1.7113708927225737e+00 7.9733405491269806e+00 8.2373221833454231e+00 0 0 0
129 2 2.0000000000000000e+00 1.0000000000000000e+00 1.8507055618662871e+00 6.3806179745787341e+00 1.4480699989738921e+01 0 0 -1
130 2 2.0000000000000000e+00 1.0000000000000000e+00 1.2259822622527807e+01 1.7438883422264257e+00 5.0152541479875730e+00 -1 0 0
131 2 2.0000000000000000e+00 1.0000000000000000e+00 1.1162369394268039e+01 7.9252929488574404e+00 1.4392525889143952e+00 0 0 0
132 2 2.0000000000000000e+00 1.0000000000000000e+00 1.3176312717894872e+01 3.8738962733378086e+00 1.7662465966598486e+00 -1 0 0
133 2 2.0000000000000000e+00 1.0000000000000000e+00 3.8472849711509727e+00 1.8315519370332798e+00 1.0017792876754550e+00 0 1 0
134 2 2.0000000000000000e+00 1.0000000000000000e+00 1.2531106849719873e+00 1.3290581136186036e+01 1.1913652095290225e+01 0 0 0
135 2 2.0000000000000000e+00 1.0000000000000000e+00 3.0473465157678326e+00 9.3962489161996743e+00 1.1713723610806198e+01 0 0 0
136 2 2.0000000000000000e+00 1.0000000000000000e+00 1.1637720527949019e+01 6.7440089921932032e+00 3.6687284765508710e+00 0 0 1
137 2 2.0000000000000000e+00 1.0000000000000000e+00 8.7089806789039592e+00 1.6931667906723724e+00 6.8397113771012350e+00 0 1 0
138 2 2.0000000000000000e+00 1.0000000000000000e+00 2.7538573402388073e+00 7.9668850379084333e+00 2.8437374579910428e+00 1 0 0
139 2 2.0000000000000000e+00 1.0000000000000000e+00 8.1151315897139953e-01 1.2561643059604766e+01 4.1586737386287426e-01 0 0 1
140 2 2.0000000000000000e+00 1.0000000000000000e+00 9.0419910683413569e+00 3.0295653032388392e+00 1.2519097014887025e+01 0 1 -1
141 2 2.0000000000000000e+00 1.0000000000000000e+00 8.8950091409315934e+00 6.9915744191435314e+00 9.5757252611890742e+00 0 0 0
142 2 2.0000000000000000e+00 1.0000000000000000e+00 7.4901132822577914e+00 1.0467389146632911e+01 1.4059172239739587e+01 0 -1 -1
143 2 2.0000000000000000e+00 1.0000000000000000e+00 4.1490783053973770e+00 4.2095253337914267e+00 1.3791055168581115e+01 1 0 0
144 2 2.0000000000000000e+00 1.0000000000000000e+00 7.4176450526671260e+00 1.1565984655974685e+01 2.6805684681936022e+00 0 0 0
145 2 2.0000000000000000e+00 1.0000000000000000e+00 1.2152631838888553e+01 3.0952571457434228e+00 6.7185343383125371e+00 0 1 0
146 2 2.0000000000000000e+00 1.0000000000000000e+00 2.6387790409748959e+00 1.1778713093621612e+01 1.1606970641546235e+01 0 0 0
147 2 2.0000000000000000e+00 1.0000000000000000e+00 6.3688653225958722e+00 9.7941857477948102e-01 8.7837665115730745e-01 0 0 0
148 2 2.0000000000000000e+00 1.0000000000000000e+00 6.5484461491032082e+00 3.1888957900434582e+00 1.8644184995484678e+00 0 0 0
149 2 2.0000000000000000e+00 1.0000000000000000e+00 1.1577337881355906e+01 1.2657644683058338e+01 3.4491955883675436e+00 0 -1 0
150 2 2.0000000000000000e+00 1.0000000000000000e+00 1.1830330596434966e+00 8.8772066138327848e+00 1.0642116910562358e+01 0 0 0
151 2 2.0000000000000000e+00 1.0000000000000000e+00 8.8299452049489702e+00 1.1586698653392547e+01 1.0806736185270789e+00 0 0 0
152 2 2.0000000000000000e+00 1.0000000000000000e+00 4.1944845286322714e+00 7.6406481242576412e+00 8.3673794881704993e+00 0 0 0
153 2 2.0000000000000000e+00 1.0000000000000000e+00 1.1379798642242070e+01 9.0631173438945922e-01 3.2815813273227037e+00 0 1 0
154 2 2.0000000000000000e+00 1.0000000000000000e+00 5.7701919109359272e+00 9.6685303330711267e+00 2.3004365768013760e-01 0 0 1
155 2 2.0000000000000000e+00 1.0000000000000000e+00 9.1134759538790092e-02 1.4090187942499320e+01 1.3921376556062421e+01 1 0 -1
156 2 2.0000000000000000e+00 1.0000000000000000e+00 2.6649832378110823e+00 1.2750147483826126e+01 8.0501115825812413e+00 1 -1 0
157 2 2.0000000000000000e+00 1.0000000000000000e+00 7.3354509511705759e+00 7.3955643247280261e+00 4.7248833362204001e+00 0 0 0
158 2 2.0000000000000000e+00 1.0000000000000000e+00 9.6951966688985589e+00 1.2396921489271369e+01 1.0038015860517294e+01 0 0 0
159 2 2.0000000000000000e+00 1.0000000000000000e+00 5.3806238461810558e+00 4.5820090157187323e+00 7.1741174839657607e-01 0 0 1
160 2 2.0000000000000000e+00 1.0000000000000000e+00 2.8384299212211488e+00 3.7045011961784575e+00 7.5100709844063496e-01 0 1 1
161 2 2.0000000000000000e+00 1.0000000000000000e+00 8.7292793611470099e-01 4.4073762466778890e+00 3.3396865417936001e+00 0 0 1
162 2 2.0000000000000000e+00 1.0000000000000000e+00 2.6213238127082312e+00 1.2633998174117371e+01 1.7581059083659751e+00 0 -1 1
163 2 2.0000000000000000e+00 1.0000000000000000e+00 2.6480776558680463e-01 9.8386754605719720e+00 6.2731558729956047e+00 0 0 0
164 2 2.0000000000000000e+00 1.0000000000000000e+00 5.2733763007190788e+00 5.5767765698842675e+00 1.2813113869717190e+01 0 0 0
165 2 2.0000000000000000e+00 1.0000000000000000e+00 1.0784059502555943e+01 7.0400108731324211e+00 1.2947684801710606e+01 0 0 0
166 2 2.0000000000000000e+00 1.0000000000000000e+00 1.0793985313558174e+01 1.3724796817379170e+01 1.2025925362665348e+01 0 0 -1
167 2 2.0000000000000000e+00 1.0000000000000000e+00 1.0572801618825588e+01 5.8065785851836864e+00 1.0067215055094945e+01 0 0 0
168 2 2.0000000000000000e+00 1.0000000000000000e+00 1.2740322713311354e+01 4.4791847153491089e+00 3.6528195730834652e+00 -1 0 0
169 2 2.0000000000000000e+00 1.0000000000000000e+00 4.4032815898537097e+00 1.3867066768778406e+01 9.7593236580851261e+00 0 -1 0
170 2 2.0000000000000000e+00 1.0000000000000000e+00 8.3770832318278696e+00 6.8053641240710672e+00 2.5297761290969016e+00 0 0 1
171 2 2.0000000000000000e+00 1.0000000000000000e+00 1.1050644206812800e+01 2.7130604903009026e+00 1.0122125936997515e+00 0 0 1
172 2 2.0000000000000000e+00 1.0000000000000000e+00 3.9143542929918240e+00 1.0996016658325873e+01 8.2780907020863270e-01 0 0 0
173 2 2.0000000000000000e+00 1.0000000000000000e+00 1.4158453867108715e+01 4.7726266094435715e-01 1.1884077153939652e+01 0 1 -1
174 2 2.0000000000000000e+00 1.0000000000000000e+00 2.0874622862545928e+00 1.3839389651670975e-01 1.3429394289438056e+01 0 1 -1
175 2 2.0000000000000000e+00 1.0000000000000000e+00 1.2234137834278422e+00 1.0742679960430474e+01 1.5409517390632801e+00 0 0 1
176 2 2.0000000000000000e+00 1.0000000000000000e+00 1.0924467895268286e+01 8.0711061167237830e+00 1.0932756491131741e+01 0 0 0
177 2 2.0000000000000000e+00 1.0000000000000000e+00 9.6886911211536653e+00 1.2520177594476294e+00 4.9416290599064432e+00 0 1 0
178 2 2.0000000000000000e+00 1.0000000000000000e+00 9.4581595273853178e+00 1.1117558883349641e+00 2.7297162151569849e+00 0 0 0
179 2 2.0000000000000000e+00 1.0000000000000000e+00 1.0814120219088650e+01 1.2744663246905240e+01 8.1095530533175015e+00 0 0 0
180 2 2.0000000000000000e+00 1.0000000000000000e+00 4.4629108992612307e+00 9.6721044291608518e+00 5.2690608024407286e+00 0 0 0
181 2 2.0000000000000000e+00 1.0000000000000000e+00 4.6701110392440350e+00 1.0726221959246527e+00 1.0538911552546040e+01 1 0 -1
182 2 2.0000000000000000e+00 1.0000000000000000e+00 1.0125045613169569e+01 8.0663226398198500e+00 3.3589178467072802e+00 0 0 0
183 2 2.0000000000000000e+00 1.0000000000000000e+00 1.2004928826981708e+01 1.4632451417800842e+01 1.0714408951048480e+01 0 -1 -1
184 2 2.0000000000000000e+00 1.0000000000000000e+00 1.3025801550701978e+01 6.5743402840729370e+00 1.8851608970932190e+00 0 0 1
185 2 2.0000000000000000e+00 1.0000000000000000e+00 7.2869076647475808e+00 1.7482415780208351e+00 9.8368432646512645e+00 0 0 0
186 2 2.0000000000000000e+00 1.0000000000000000e+00 5.7076524243302318e-01 3.7658074704545341e+00 9.6734671686704699e-01 1 1 0
187 2 2.0000000000000000e+00 1.0000000000000000e+00 6.4056502997292686e+00 5.9680758336375321e+00 3.5750429114988620e+00 0 1 0
188 2 2.0000000000000000e+00 1.0000000000000000e+00 3.4979642933802864e+00 1.3248835346624906e+01 3.6525128126596886e+00 0 0 0
189 2 2.0000000000000000e+00 1.0000000000000000e+00 4.8245224166168976e-01 1.3588787747908347e+01 6.2229705298425690e+00 0 -1 0
190 2 2.0000000000000000e+00 1.0000000000000000e+00 6.9373552057659094e+00 5.3804381853363665e+00 1.7314543927704349e+00 0 0 1
191 2 2.0000000000000000e+00 1.0000000000000000e+00 8.4445364448075733e+00 4.0946391037164975e+00 2.2688627136005888e+00 0 0 0
192 2 2.0000000000000000e+00 1.0000000000000000e+00 7.7744423948494044e+00 7.0654901157450807e+00 1.1978924204306342e+01 0 -1 -1
193 2 2.0000000000000000e+00 1.0000000000000000e+00 9.3018787275919106e+00 5.3344727061080386e+00 1.1699970423433447e+01 0 0 0
194 2 2.0000000000000000e+00 1.0000000000000000e+00 3.5739152499935445e+00 1.3748521351663593e+01 1.2004590267389508e+01 0 0 -1
195 2 2.0000000000000000e+00 1.0000000000000000e+00 4.7674475266527399e+00 1.0801024073003265e+00 4.5454674509292863e+00 1 0 0
196 2 2.0000000000000000e+00 1.0000000000000000e+00 3.1907677171880509e+00 3.2352775232890765e+00 1.0086073467521022e+01 1 0 0
197 2 2.0000000000000000e+00 1.0000000000000000e+00 8.5513784303213818e+00 1.1727570409593616e+01 5.0573812466629313e+00 0 0 0
198 2 2.0000000000000000e+00 1.0000000000000000e+00 2.4661937414721775e+00 1.2824113374106636e+01 1.3786091580685980e+01 0 0 -1
199 2 2.0000000000000000e+00 1.0000000000000000e+00 7.5754689935518469e+00 1.0613976353475632e+01 1.2030636249858892e+01 0 0 0
200 2 2.0000000000000000e+00 1.0000000000000000e+00 5.5191823734877525e+00 1.3126044247969993e+01 1.2314373720870739e+01 0 0 0

Velocities

1 -1.4278590549337000e-02 -7.8816186945135577e-03 2.6475671507969062e-03 1.6397266354525326e-02 1.3798784774974406e-02 3.1603192932693524e-03
2 -1.2201289772431798e-03 -6.7198534328403274e-03 1.1468180096269766e-02 2.3055477901167978e-02 2.6679976995233702e-02 3.4484074035595599e-02
3 -7.0735397345338610e-03 -1.5256493156082294e-02 7.9145073740732128e-03 -9.3123146654905745e-03 -3.9982769469113751e-03 1.7962201034568789e-02
4 2.2108665542633819e-03 4.8947430921485726e-03 1.3091227293457117e-02 3.4958158364540503e-03 5.9129942474097155e-03 1.2273537957013948e-02
5 -2.3683728371186033e-03 5.9405255483027559e-03 -1.5828872697869832e-02 1.9160364792967614e-02 4.0663012976836291e-03 1.0795559869083662e-02
6 -1.0350676257108716e-02 -6.1610213919586062e-03 -6.0611072752963747e-03 1.8822721850702945e-03 3.0522865808079104e-03 -2.4683407143860220e-02
7 3.9358755056148886e-03 -1.5384364180038673e-02 2.4366569379188235e-03 -1.4083220981094369e-02 7.2298854240066025e-03 3.9015943685331211e-03
8 3.4192051553797983e-03 1.1522233183635676e-02 -1.3615915309103171e-03 -1.9006280202971634e-03 1.9606708247246946e-02 -3.4775237085226188e-03
9 -6.8639357302316484e-03 1.6779888112409019e-02 5.4212381214948048e-03 -1.9210160524467459e-02 -1.6426634792090907e-03 -1.0078200949264354e-02
10 -2.2980458826363733e-04 -8.0431281538182679e-04 -3.3800873114984559e-03 -6.0076226001487439e-03 6.9989315439208315e-04 7.8466832839996573e-03
11 7.7534463286182088e-03 1.5589676161505660e-03 2.4216105520532227e-02 2.4765285317537689e-02 3.2898406334894983e-03 -2.5023472886014596e-02
12 1.6080313741086406e-03 -6.0801490120370571e-03 4.7105021125485053e-03 -1.9271702693666997e-02 1.5698635370564713e-02 -7.4171187195044841e-04
13 -1.0027242198866193e-02 -3.9503230292114722e-03 1.2624360778740516e-02 -1.5199426463308832e-03 -1.9644322412453875e-02 4.5029860543978045e-03
14 -1.2128178464541164e-03 1.0527561441111168e-02 -1.5380084289132194e-03 1.7054024507600133e-04 4.3956475394543023e-03 2.5135553204567790e-03
15 -6.0930331877150556e-03 1.3069610663927350e-03 -3.0298087659837345e-03 5.5150485563445800e-04 4.7282036340573763e-03 -5.7339696107684308e-03
16 1.1155620935370317e-02 1.2997155625270861e-02 -4.4684908061410622e-03 4.7628975989434186e-03 -4.3092292084354845e-03 -2.6124048042909361e-02
17 -8.3583609028378691e-03 3.8354981757897028e-03 2.8675445627114426e-03 -1.2343403407408818e-02 1.7013103839146171e-02 1.3627219478105142e-02
18 -3.4267388343887715e-03 -7.1223246571037822e-03 -5.6721936865651162e-03 -2.1846269250945842e-02 -2.8454483471174456e-02 5.9887913243041366e-02
19 -1.3435032579990902e-02 4.5788456164327128e-03 4.3858237294969676e-04 7.4344529600421875e-03 -7.5231944984517907e-03 -6.2510815136121115e-03
20 1.2637882932690504e-02 4.7548275395301303e-03 -4.9398986490387072e-03 -2.3547979813960482e-02 -1.4334072961884738e-02 -5.3872189917498490e-03
21 1.2127941354441176e-02 2.7969490315011463e-03 -1.3931204724910745e-02 2.4398036531909147e-02 1.6001675910422262e-02 -5.6463879869237833e-03
22 -5.9405841366368005e-03 5.4003566218674741e-05 8.4337399747752909e-03 -1.1389689045668675e-02 7.9331051895144061e-04 1.3657773406850305e-02
23 1.8923680604312845e-02 -5.0909940375365196e-03 6.8542333996084578e-03 2.5271896579948501e-02 1.4257727095001064e-02 -4.3946230176039325e-03
24 -1.2112610449688060e-02 1.4212833284384494e-02 1.1254136924249251e-02 -6.5636558514639634e-03 -2.4531825766412711e-02 -1.2039217155901231e-02
25 -1.4111424612230901e-03 -5.0996357080176210e-03 -2.0415510402042526e-03 -7.6678857397243817e-04 1.0508370370667562e-02 2.4024970246447307e-02
26 -6.1076727685570988e-03 6.0384969954046146e-03 -1.2309979925537398e-04 2.6118268177339919e-03 1.0390254792851395e-02 -4.1519145326434376e-03
27 -1.0313789829388336e-02 -2.4633353921485288e-05 1.7123153733044263e-02 2.9050302982514532e-02 3.2561248701571698e-02 2.0118700335638905e-02
28 6.9828648184934198e-03 -5.4416679477121057e-03 1.0936685860613467e-02 1.3344055848689355e-02 -9.4017829435669924e-04 -4.5139845650624746e-03
29 9.9174426073826028e-03 9.3353543899991507e-04 -8.1642388543577016e-03 -5.2154475660509056e-03 -2.0951214726732295e-02 2.4078037976801268e-03