LAMMPS (5 Jun 2019)
# SETTINGS
atom_style	sphere
comm_modify	mode single vel yes
newton off

# READ THE PARTICLE CONFIGURATION
read_data data.file
  triclinic box = (0 0 0) to (14.6381 14.6381 14.6381) with tilt (0 0 0)
  1 by 1 by 1 MPI processor grid
  reading atoms ...
  200 atoms
  reading velocities ...
  200 velocities
  read_data CPU = 0.00220108 secs

# SPECIFY THE PARTICLE-PARTICLE INTERACTION
pair_style hybrid/overlay granular lubricate/bmpoly 0.1 1 1 0.001 0.05 1 0
pair_coeff * * granular hooke 10000 0 tangential linear_history 7000 0 1
pair_coeff * * lubricate/bmpoly

# DO THE STRESS CALC
compute	    Temp all temp/profile 1 1 1 y 10
compute		str  all pressure Temp

# SPECIFY THE OUTPUTS
thermo_style	custom time c_str[1] c_str[2] c_str[3] c_str[4] c_str[5] c_str[6]
thermo          10000
thermo_modify format line "%.0f %12.4e %12.4e %12.4e %12.4e %12.4e %12.4e"
dump            id all custom 2000 data.dump id x y z radius

# SPECIFY THE TIMESTEP, THE INTEGRATION SCHEME AND RUN
timestep	0.0001
fix		    1 all nve/sphere
fix         2 all deform 1 xy erate 0.001 remap v
run 30000000
Neighbor list info ...
  update every 1 steps, delay 10 steps, check yes
  max neighbors/atom: 2000, page size: 100000
  master list distance cutoff = 3.1
  ghost atom cutoff = 3.1
  binsize = 1.55, bins = 10 10 10
  2 neighbor lists, perpetual/occasional/extra = 2 0 0
  (1) pair granular, perpetual
      attributes: half, newton off, size, history
      pair build: half/size/bin/newtoff
      stencil: half/bin/3d/newtoff
      bin: standard
  (2) pair lubricate/bmpoly, perpetual
      attributes: full, newton off
      pair build: full/bin/atomonly
      stencil: full/bin/3d
      bin: standard
Per MPI rank memory allocation (min/avg/max) = 11.29 | 11.29 | 11.29 Mbytes
Time c_str[1] c_str[2] c_str[3] c_str[4] c_str[5] c_str[6] 
0   5.3321e-03   8.0767e-03   1.9993e-02   4.9005e-03  -3.7919e-03  -1.1931e-02 
1   1.1406e-04   5.8445e-05   1.7531e-04  -1.8081e-04  -5.3399e-05   9.7051e-06 
2   1.0354e-04   4.2638e-05   5.3653e-05  -1.6733e-04  -3.1683e-05  -8.8105e-06 
3   7.5441e-05   9.2299e-06   5.3539e-05  -2.1836e-04  -1.2350e-05   2.1177e-06 
4   2.8293e-05   2.1404e-05   2.6170e-05  -2.0683e-04  -9.8799e-06   5.2555e-06 
5   1.9151e-05  -7.4209e-06   2.8727e-06  -1.9542e-04  -7.9645e-06  -7.4765e-06 
6   8.4277e-06  -1.7654e-06  -5.7383e-06  -1.9907e-04   1.0017e-06  -5.4214e-06 
7   7.0369e-06  -3.9166e-06  -4.8834e-06  -1.9530e-04   3.0347e-06  -3.9864e-06 
8   3.6499e-06  -4.3685e-06  -4.8774e-06  -1.9356e-04   2.3052e-06  -2.9987e-06 
9   8.3540e-06   8.4252e-06  -5.1247e-06  -2.0301e-04   1.0503e-06  -3.6214e-06 
10   3.5243e-06   1.0543e-06  -3.5350e-06  -1.9711e-04   4.7402e-08  -2.4431e-06 
11   2.0607e-06   1.1885e-07  -3.5589e-06  -1.9524e-04   6.4517e-08  -3.0865e-06 
12   4.1095e-06   1.5395e-06  -1.0417e-06  -1.9609e-04  -2.9112e-06  -1.6853e-06 
13   1.5827e-06   9.3295e-07  -3.6794e-06  -1.9443e-04  -7.1454e-07  -2.6024e-06 
14   1.0924e-06   8.5679e-07  -3.5136e-06  -1.9409e-04  -8.1936e-07  -2.5958e-06 
15   6.7965e-06   1.5361e-05  -7.4700e-07  -2.0505e-04   9.8638e-08  -5.6374e-06 
16   3.3985e-06   9.5032e-06  -1.9987e-06  -1.9964e-04  -5.7544e-07  -4.1636e-06 
17   3.4193e-06   9.0111e-06  -2.4587e-06  -2.0037e-04  -5.4063e-07  -3.3783e-06 
18   2.7231e-06   8.0974e-06  -2.6058e-06  -1.9992e-04  -5.2996e-07  -3.2140e-06 
19   1.3423e-05   3.2921e-05  -6.4997e-08  -2.1654e-04  -5.6468e-06   6.3542e-06 
20   1.0648e-05   2.8515e-05   1.2841e-07  -2.1464e-04  -3.9183e-06   4.0957e-06 
21   9.1529e-06   2.5952e-05  -5.8860e-07  -2.1261e-04  -3.9710e-06   3.0545e-06 
22   8.6717e-06   2.4801e-05  -7.1864e-07  -2.1176e-04  -3.8316e-06   2.6762e-06 
23   8.4266e-06   2.4249e-05  -7.8460e-07  -2.1132e-04  -3.7727e-06   2.5151e-06 
24   1.0921e-05   2.7607e-05   1.3915e-06  -2.1258e-04  -2.7073e-06   1.4325e-06 
25   1.2034e-05   2.7189e-05   1.1031e-06  -2.1250e-04  -2.6633e-06   2.3871e-06 
26   1.0284e-05   2.6770e-05   9.2935e-07  -2.1172e-04  -2.8037e-06   2.5942e-06 
27   1.0217e-05   2.6699e-05   9.6293e-07  -2.1161e-04  -2.7557e-06   2.6444e-06 
28   1.0173e-05   2.6689e-05   9.8503e-07  -2.1157e-04  -2.7328e-06   2.6854e-06 
29   1.0128e-05   2.6705e-05   9.9583e-07  -2.1156e-04  -2.7216e-06   2.7244e-06 
30   1.2052e-05   2.8382e-05   1.5004e-06  -2.0928e-04  -2.6120e-06   3.6045e-06 
31   1.1943e-05   2.7941e-05   1.3211e-06  -2.0886e-04  -2.4436e-06   3.5489e-06 
32   1.7386e-05   3.7450e-05   3.8961e-06  -2.1495e-04  -5.3681e-06   5.8551e-06 
33   2.4636e-05   4.1925e-05   6.7678e-06  -2.2155e-04  -2.3678e-07   1.7953e-06 
34   2.3914e-05   4.0799e-05   6.6862e-06  -2.1982e-04   4.9186e-07   9.4571e-07 
35   2.3918e-05   4.4269e-05   1.0759e-05  -2.2117e-04  -1.7449e-06   5.9577e-06 
36   2.2947e-05   4.1172e-05   6.3640e-06  -2.2001e-04  -7.6132e-07   2.5311e-06 
37   2.2895e-05   4.0843e-05   6.3421e-06  -2.1967e-04  -7.1536e-07   2.5883e-06 
38   2.2723e-05   4.0742e-05   6.2783e-06  -2.1953e-04  -7.5716e-07   2.6830e-06 
39   2.2593e-05   4.0678e-05   6.2350e-06  -2.1948e-04  -7.6244e-07   2.7356e-06 
40   2.2446e-05   4.0775e-05   6.3245e-06  -2.1905e-04  -8.4232e-07   2.2408e-06 
41   2.3296e-05   4.0947e-05   6.2832e-06  -2.1830e-04  -6.1738e-07   2.3066e-06 
42   2.3219e-05   4.0913e-05   6.2930e-06  -2.1820e-04  -5.6372e-07   2.3613e-06 
43   2.3142e-05   4.0878e-05   6.2633e-06  -2.1819e-04  -5.4705e-07   2.3791e-06 
44   2.3935e-05   4.3815e-05   6.3271e-06  -2.2029e-04   1.2556e-06   1.5211e-06 
45   2.5209e-05   4.4947e-05   6.6063e-06  -2.2167e-04   3.1999e-07   1.9503e-06 
46   3.2250e-05   4.9857e-05   5.9899e-06  -2.2670e-04   6.4668e-07   1.7324e-06 
47   2.8043e-05   4.6168e-05   5.9653e-06  -2.2502e-04   4.1223e-07   2.4061e-06 
48   3.7386e-05   6.2586e-05   1.1198e-05  -2.3700e-04  -1.0241e-06   1.3636e-06 
49   3.4608e-05   5.2277e-05   8.6472e-06  -2.2986e-04   4.4134e-07   4.1145e-07 
50   3.3675e-05   5.0869e-05   7.8070e-06  -2.2887e-04   7.6654e-07   5.8941e-07 
51   4.5606e-05   6.2132e-05   1.2515e-05  -2.4215e-04   5.9839e-06  -5.1481e-06 
52   4.2201e-05   5.7493e-05   1.1166e-05  -2.3818e-04   5.3974e-06  -3.3939e-06 
53   5.2931e-05   6.0615e-05   1.3216e-05  -2.3998e-04   7.3441e-06  -4.4810e-06 
54   7.6892e-05   7.6249e-05   2.6619e-05  -2.4775e-04   1.8888e-05  -9.2668e-06 
55   7.0455e-05   7.0757e-05   2.2317e-05  -2.4314e-04   1.5386e-05  -6.6284e-06 
56   6.8329e-05   7.0154e-05   2.0594e-05  -2.4115e-04   1.4326e-05  -6.0273e-06 
57   6.7682e-05   7.1299e-05   2.0169e-05  -2.4150e-04   1.4450e-05  -6.3630e-06 
58   8.3450e-05   7.8167e-05   3.2134e-05  -2.4862e-04   2.2045e-05  -1.0606e-05 
59   7.7914e-05   7.7510e-05   2.4704e-05  -2.4747e-04   1.7421e-05  -7.9797e-06 
60   7.6087e-05   7.6306e-05   2.3738e-05  -2.4648e-04   1.7228e-05  -7.6786e-06 
61   8.6382e-05   8.7684e-05   2.4478e-05  -2.5490e-04   1.8614e-05  -9.1056e-06 
62   8.2416e-05   7.9830e-05   2.4646e-05  -2.4996e-04   1.7405e-05  -7.9220e-06 
63   8.7295e-05   7.9115e-05   2.5845e-05  -2.4908e-04   1.4858e-05  -7.6674e-06 
64   8.8041e-05   8.3806e-05   2.8397e-05  -2.5270e-04   1.3994e-05  -5.1758e-06 
65   8.4826e-05   8.1040e-05   2.7280e-05  -2.5065e-04   1.5279e-05  -6.4228e-06 
66   8.4907e-05   8.2474e-05   2.6411e-05  -2.5164e-04   1.5344e-05  -6.9024e-06 
67   8.8942e-05   8.1081e-05   2.7356e-05  -2.5246e-04   1.8552e-05  -8.7776e-06 
68   8.7610e-05   8.1479e-05   2.7228e-05  -2.5237e-04   1.7625e-05  -8.0494e-06 
69   8.7186e-05   8.1648e-05   2.7268e-05  -2.5233e-04   1.7380e-05  -7.8948e-06 
70   1.1209e-04   9.5676e-05   2.9187e-05  -2.6697e-04   1.4768e-05  -3.6856e-06 
71   9.7735e-05   8.9413e-05   2.9401e-05  -2.5797e-04   1.4912e-05  -6.2230e-06 
72   1.1554e-04   1.2020e-04   3.2282e-05  -2.7788e-04   1.5888e-05  -4.7184e-06 
73   1.3832e-04   1.0934e-04   3.7741e-05  -2.8007e-04   2.6296e-05  -1.1268e-05 
74   1.2407e-04   1.0458e-04   3.8114e-05  -2.7516e-04   2.2775e-05  -9.4432e-06 
75   1.1910e-04   1.0327e-04   3.5705e-05  -2.7267e-04   2.0989e-05  -8.6803e-06 
76   1.1814e-04   1.0353e-04   3.5025e-05  -2.7238e-04   2.0532e-05  -8.4921e-06 
77   1.2652e-04   1.2266e-04   5.4065e-05  -2.8337e-04   1.0170e-05   4.2599e-06 
78   1.2687e-04   1.1451e-04   4.3701e-05  -2.7975e-04   1.5303e-05  -2.8371e-06 
79   1.3495e-04   1.2162e-04   4.4448e-05  -2.8775e-04   1.1819e-05  -7.8260e-07 
80   1.3132e-04   1.2223e-04   4.2473e-05  -2.8474e-04   1.4740e-05  -3.6608e-06 
81   1.3227e-04   1.2031e-04   4.3256e-05  -2.8605e-04   1.6492e-05  -5.1530e-06 
82   1.3082e-04   1.1853e-04   4.4357e-05  -2.8431e-04   1.4885e-05  -4.8115e-06 
83   1.3106e-04   1.1949e-04   4.4093e-05  -2.8265e-04   1.4757e-05  -5.2330e-06 
84   1.3826e-04   1.2379e-04   4.5720e-05  -2.8807e-04   1.2739e-05  -4.2263e-06 
85   1.3366e-04   1.2118e-04   4.5297e-05  -2.8470e-04   1.3870e-05  -4.8281e-06 
86   1.3754e-04   1.3422e-04   4.5779e-05  -2.9224e-04   1.1557e-05  -5.4002e-06 
87   1.3641e-04   1.3049e-04   4.4494e-05  -2.8930e-04   1.2626e-05  -4.6146e-06 
88   1.3598e-04   1.2935e-04   4.4390e-05  -2.8869e-04   1.3027e-05  -4.6668e-06 
89   1.3583e-04   1.2904e-04   4.4438e-05  -2.8854e-04   1.3202e-05  -4.7411e-06 
90   1.3577e-04   1.2897e-04   4.4511e-05  -2.8852e-04   1.3307e-05  -4.8001e-06 
91   1.3574e-04   1.2898e-04   4.4583e-05  -2.8855e-04   1.3389e-05  -4.8472e-06 
92   1.3577e-04   1.2934e-04   4.4920e-05  -2.8882e-04   1.3635e-05  -5.1883e-06 
93   1.7071e-04   1.6760e-04   5.4514e-05  -3.1279e-04   2.1788e-05  -4.9828e-06 
94   1.5548e-04   1.6236e-04   4.9209e-05  -3.0687e-04   1.3355e-05  -3.5560e-06 
95   1.5577e-04   1.6032e-04   4.9630e-05  -3.0677e-04   1.3845e-05  -4.5613e-06 
96   1.5897e-04   1.6799e-04   4.9663e-05  -3.1144e-04   1.3772e-05  -5.0737e-06 
97   1.5465e-04   1.6117e-04   4.9574e-05  -3.0649e-04   1.3460e-05  -4.4538e-06 
98   1.5441e-04   1.6076e-04   4.9608e-05  -3.0627e-04   1.3469e-05  -4.4129e-06 
99   1.5430e-04   1.6077e-04   4.9666e-05  -3.0622e-04   1.3500e-05  -4.4251e-06 
100   1.5876e-04   1.6780e-04   5.3204e-05  -3.0955e-04   1.0038e-05  -7.7227e-07 
101   1.5825e-04   1.6673e-04   5.2000e-05  -3.0981e-04   1.1453e-05  -1.3682e-06 
102   1.5796e-04   1.6645e-04   5.1867e-05  -3.0974e-04   1.1661e-05  -1.5876e-06 
103   1.7328e-04   1.8001e-04   5.4173e-05  -3.2515e-04   4.7383e-06   4.8574e-06 
104   1.8133e-04   1.7766e-04   6.3203e-05  -3.2468e-04   1.7780e-05  -3.6917e-06 
105   1.7422e-04   1.7490e-04   5.9097e-05  -3.2134e-04   1.5750e-05  -3.1696e-06 
106   1.7961e-04   1.8672e-04   6.3421e-05  -3.2917e-04   1.1910e-05   3.4930e-06 
107   1.7740e-04   1.8271e-04   6.2580e-05  -3.2661e-04   1.2944e-05   1.4424e-06 
108   1.7680e-04   1.8210e-04   6.2292e-05  -3.2605e-04   1.3144e-05   1.1788e-06 
109   1.7966e-04   1.8484e-04   7.1782e-05  -3.2810e-04   1.2560e-05   5.5919e-07 
110   1.7854e-04   1.8419e-04   6.8609e-05  -3.2755e-04   1.3156e-05   3.0521e-07 
111   1.8454e-04   1.8843e-04   6.6134e-05  -3.3122e-04   1.5593e-05  -1.9632e-06 
112   1.8294e-04   1.8776e-04   6.6297e-05  -3.3061e-04   1.5242e-05  -1.4286e-06 
113   1.8247e-04   1.8770e-04   6.6453e-05  -3.3047e-04   1.5134e-05  -1.2405e-06 
114   1.8480e-04   1.8956e-04   6.7761e-05  -3.3044e-04   1.4461e-05  -8.2477e-07 
115   1.8434e-04   1.8995e-04   6.7781e-05  -3.3022e-04   1.4821e-05  -5.6860e-07 
116   1.9253e-04   1.9813e-04   7.1710e-05  -3.3719e-04   1.7309e-05  -2.2739e-06 
117   1.9137e-04   1.9626e-04   7.0256e-05  -3.3369e-04   1.6938e-05  -1.4282e-06 
118   1.9057e-04   2.1398e-04   7.0381e-05  -3.3389e-04   1.6427e-05  -4.4676e-06 
119   1.9315e-04   2.0388e-04   7.0547e-05  -3.3779e-04   1.7780e-05  -2.5913e-06 
120   2.0261e-04   2.0448e-04   7.4970e-05  -3.4200e-04   1.5854e-05  -2.3074e-06 
121   1.9629e-04   2.0405e-04   7.2064e-05  -3.3989e-04   1.6820e-05  -2.2806e-06 
122   1.9566e-04   2.0394e-04   7.1560e-05  -3.3954e-04   1.6939e-05  -2.2620e-06 
123   1.9946e-04   2.0898e-04   7.9809e-05  -3.4277e-04   1.3347e-05  -1.4612e-06 
124   1.9989e-04   2.1053e-04   7.5611e-05  -3.4358e-04   1.4430e-05  -2.9658e-07 
125   2.1064e-04   2.1886e-04   7.9228e-05  -3.5154e-04   1.6952e-05  -2.5762e-06 
126   2.1117e-04   2.1828e-04   7.8800e-05  -3.5166e-04   1.7803e-05  -2.4982e-06 
127   2.0959e-04   2.1799e-04   7.8219e-05  -3.5095e-04   1.7287e-05  -2.3141e-06 
128   2.0927e-04   2.1812e-04   7.8148e-05  -3.5087e-04   1.7345e-05  -2.3362e-06 
129   2.2208e-04   2.2722e-04   8.1902e-05  -3.5731e-04   1.6807e-05  -2.1877e-06 
130   2.1573e-04   2.2462e-04   8.0822e-05  -3.5565e-04   1.8986e-05  -3.5938e-06 
131   2.1980e-04   2.2640e-04   8.1128e-05  -3.5832e-04   1.9342e-05  -3.6158e-06 
132   2.1795e-04   2.2594e-04   8.1100e-05  -3.5728e-04   1.9019e-05  -3.6704e-06 
133   2.1753e-04   2.2603e-04   8.1157e-05  -3.5713e-04   1.9099e-05  -3.7023e-06 
134   2.2076e-04   2.2681e-04   8.5259e-05  -3.5917e-04   1.6866e-05  -1.8300e-06 
135   2.2952e-04   2.3948e-04   9.1192e-05  -3.6773e-04   1.8114e-05   3.6382e-07 
136   2.2734e-04   2.3619e-04   8.9434e-05  -3.6597e-04   1.7927e-05  -5.2819e-07 
137   2.2658e-04   2.3551e-04   8.8840e-05  -3.6552e-04   1.7769e-05  -6.3810e-07 
138   2.3289e-04   2.3775e-04   8.9279e-05  -3.6959e-04   1.7882e-05  -1.9245e-07 
139   2.3053e-04   2.3664e-04   8.8983e-05  -3.6807e-04   1.7814e-05  -6.2139e-07 
140   2.3011e-04   2.3636e-04   8.8916e-05  -3.6779e-04   1.7892e-05  -6.6228e-07 
141   2.2994e-04   2.3637e-04   8.8933e-05  -3.6773e-04   1.7953e-05  -6.5881e-07 
142   2.3781e-04   2.4376e-04   9.1117e-05  -3.7628e-04   2.1929e-05  -4.9862e-06 
143   2.3504e-04   2.4116e-04   9.0854e-05  -3.7293e-04   2.1228e-05  -3.3576e-06 
144   2.3409e-04   2.4046e-04   9.0759e-05  -3.7197e-04   2.0947e-05  -3.0289e-06 
145   2.3726e-04   2.4940e-04   8.9495e-05  -3.7849e-04   2.0362e-05  -1.7734e-06 
146   2.3528e-04   2.4226e-04   8.9876e-05  -3.7402e-04   2.1592e-05  -3.6257e-06 
147   2.4588e-04   2.4974e-04   1.0173e-04  -3.7996e-04   1.7586e-05  -1.5623e-06 
148   2.6771e-04   2.5490e-04   1.0115e-04  -3.9287e-04   2.8189e-05  -9.1557e-06 
149   2.5641e-04   2.5187e-04   9.8360e-05  -3.8658e-04   2.2290e-05  -4.2397e-06 
150   2.6764e-04   2.7596e-04   1.0017e-04  -3.9938e-04   2.3616e-05  -4.2445e-06 
151   2.6265e-04   2.7290e-04   1.0027e-04  -3.9766e-04   1.9309e-05  -1.5112e-06 
152   2.6806e-04   2.6912e-04   1.0292e-04  -3.9637e-04   2.2679e-05  -3.1190e-06 
153   2.6589e-04   2.7147e-04   1.1123e-04  -3.9772e-04   2.2493e-05  -4.2273e-06 
154   2.6498e-04   2.7097e-04   1.0981e-04  -3.9725e-04   2.2304e-05  -4.1103e-06 
155   2.6602e-04   2.7167e-04   1.0948e-04  -3.9702e-04   2.2949e-05  -4.3978e-06 
156   2.8320e-04   2.9386e-04   1.1137e-04  -4.1233e-04   3.1980e-05  -1.5596e-05 
157   2.8658e-04   3.2611e-04   1.1146e-04  -4.2599e-04   2.1699e-05   3.2949e-07 
158   2.8511e-04   3.0694e-04   1.1268e-04  -4.1758e-04   2.5184e-05  -6.3290e-06 
159   2.9484e-04   3.1145e-04   1.2597e-04  -4.2590e-04   3.1576e-05  -1.1534e-05 
160   2.9199e-04   3.0856e-04   1.2157e-04  -4.2335e-04   2.8041e-05  -8.9868e-06 
161   3.0049e-04   3.2472e-04   1.2657e-04  -4.3201e-04   3.3346e-05  -1.4330e-05 
162   2.9980e-04   3.1965e-04   1.2390e-04  -4.3112e-04   3.0550e-05  -1.0790e-05 
163   3.0043e-04   3.2033e-04   1.2810e-04  -4.3084e-04   3.1677e-05  -1.3096e-05 
164   2.9984e-04   3.1972e-04   1.2639e-04  -4.3061e-04   3.1406e-05  -1.2432e-05 
165   3.0801e-04   3.2392e-04   1.2809e-04  -4.3598e-04   3.4071e-05  -1.3589e-05 
166   3.0331e-04   3.2257e-04   1.2714e-04  -4.3382e-04   3.3284e-05  -1.3339e-05 
167   3.1626e-04   3.2997e-04   1.3329e-04  -4.3940e-04   3.5083e-05  -1.5218e-05 
168   3.1380e-04   3.2803e-04   1.3248e-04  -4.3829e-04   3.4886e-05  -1.5230e-05 
169   3.1287e-04   3.2735e-04   1.3213e-04  -4.3786e-04   3.4955e-05  -1.5282e-05 
170   3.3185e-04   3.4039e-04   1.3399e-04  -4.5025e-04   3.5754e-05  -1.7811e-05 
171   3.3367e-04   3.4113e-04   1.4401e-04  -4.5141e-04   4.2660e-05  -2.3360e-05 
172   3.3026e-04   3.4118e-04   1.3863e-04  -4.5027e-04   3.8933e-05  -2.0243e-05 
173   3.3754e-04   3.4390e-04   1.4393e-04  -4.5415e-04   3.7347e-05  -1.5742e-05 
174   3.3655e-04   3.4605e-04   1.4277e-04  -4.5512e-04   3.9226e-05  -1.7674e-05 
175   3.7308e-04   3.7871e-04   1.4270e-04  -4.8643e-04   4.9983e-05  -2.8735e-05 
176   3.8151e-04   3.7239e-04   1.4748e-04  -4.8819e-04   5.2749e-05  -2.8275e-05 
177   3.8097e-04   3.7794e-04   1.4718e-04  -4.9016e-04   5.0196e-05  -2.6669e-05 
178   3.7769e-04   3.7574e-04   1.4653e-04  -4.8755e-04   4.9319e-05  -2.5818e-05 
179   3.7648e-04   3.7485e-04   1.4738e-04  -4.8668e-04   4.9118e-05  -2.5014e-05 
180   3.7605e-04   3.7444e-04   1.4779e-04  -4.8589e-04   4.8946e-05  -2.5349e-05 
181   3.9643e-04   3.7733e-04   1.4744e-04  -4.9435e-04   5.4344e-05  -2.9682e-05 
182   3.9841e-04   3.8849e-04   1.5172e-04  -5.0178e-04   5.1944e-05  -2.4332e-05 
183   3.9374e-04   3.8269e-04   1.5079e-04  -4.9744e-04   5.2226e-05  -2.5934e-05 
184   3.9272e-04   3.8196e-04   1.5061e-04  -4.9670e-04   5.2126e-05  -2.6184e-05 
185   3.8540e-04   3.7987e-04   1.4911e-04  -4.9089e-04   5.0995e-05  -2.2909e-05 
186   3.8509e-04   3.8433e-04   1.5010e-04  -4.9425e-04   4.8772e-05  -1.9159e-05 
187   3.8836e-04   3.9113e-04   1.5037e-04  -5.0148e-04   4.9884e-05  -2.2006e-05 
188   3.9921e-04   3.9374e-04   1.5039e-04  -5.0747e-04   4.6491e-05  -1.8950e-05 
189   3.9198e-04   3.9030e-04   1.5179e-04  -5.0113e-04   4.8630e-05  -2.0055e-05 
190   3.9737e-04   3.9871e-04   1.5327e-04  -5.0799e-04   5.0068e-05  -1.9342e-05 
191   4.1658e-04   4.2759e-04   1.6085e-04  -5.2512e-04   4.6520e-05  -1.8279e-05 
192   4.3162e-04   4.5014e-04   1.6150e-04  -5.4108e-04   4.2929e-05  -1.5823e-05 
193   4.2327e-04   4.3666e-04   1.5999e-04  -5.3357e-04   4.5738e-05  -1.8124e-05 
194   4.2034e-04   4.3251e-04   1.5982e-04  -5.3104e-04   4.6443e-05  -1.8532e-05 
195   4.1930e-04   4.3106e-04   1.5985e-04  -5.3009e-04   4.6752e-05  -1.8704e-05 
196   4.2216e-04   4.3439e-04   1.8066e-04  -5.3165e-04   4.6539e-05  -2.0658e-05 
197   4.2214e-04   4.3640e-04   1.7331e-04  -5.3235e-04   4.6883e-05  -1.9949e-05 
198   4.5501e-04   4.4836e-04   1.6760e-04  -5.5221e-04   4.3084e-05  -1.4282e-05 
199   4.5452e-04   4.7091e-04   1.7333e-04  -5.5819e-04   4.5877e-05  -1.4423e-05 
200   4.5095e-04   4.6435e-04   1.7173e-04  -5.5432e-04   4.6461e-05  -1.6438e-05 
201   4.4969e-04   4.6263e-04   1.7141e-04  -5.5324e-04   4.6700e-05  -1.6926e-05 
202   4.4927e-04   4.6225e-04   1.7148e-04  -5.5296e-04   4.6877e-05  -1.7125e-05 
203   4.6154e-04   4.6838e-04   1.7478e-04  -5.5873e-04   4.8510e-05  -2.1015e-05 
204   4.6347e-04   4.6993e-04   1.7834e-04  -5.6044e-04   5.1309e-05  -2.2983e-05 
205   4.5981e-04   4.6755e-04   1.7920e-04  -5.5798e-04   4.9387e-05  -2.2448e-05 
206   4.6008e-04   4.6927e-04   1.9773e-04  -5.5987e-04   5.6159e-05  -3.0244e-05 
207   4.6712e-04   4.8146e-04   1.9489e-04  -5.6662e-04   5.4329e-05  -2.7171e-05 
208   4.6989e-04   4.7845e-04   1.9233e-04  -5.6356e-04   5.3890e-05  -2.7349e-05 
209   4.6890e-04   4.7766e-04   1.9085e-04  -5.6289e-04   5.3341e-05  -2.6710e-05 
210   4.6853e-04   4.7755e-04   1.9044e-04  -5.6267e-04   5.3219e-05  -2.6573e-05 
211   4.6842e-04   4.7767e-04   1.9039e-04  -5.6264e-04   5.3251e-05  -2.6600e-05 
212   4.6967e-04   4.8442e-04   1.9170e-04  -5.6534e-04   5.3909e-05  -2.8975e-05 
213   4.6887e-04   4.8565e-04   1.9214e-04  -5.6513e-04   5.2257e-05  -2.6004e-05 
214   4.6874e-04   4.8487e-04   1.9208e-04  -5.6481e-04   5.2703e-05  -2.6519e-05 
215   4.7224e-04   4.9145e-04   1.9236e-04  -5.6979e-04   5.4694e-05  -2.8620e-05 
216   5.0534e-04   5.2618e-04   2.0925e-04  -5.9215e-04   5.0311e-05  -2.4435e-05 
217   5.0239e-04   5.1952e-04   2.0593e-04  -5.9058e-04   5.2461e-05  -2.3520e-05 
218   5.0724e-04   5.2311e-04   2.1153e-04  -5.9292e-04   4.9097e-05  -2.2964e-05 
219   5.0579e-04   5.2133e-04   2.0967e-04  -5.9179e-04   5.0322e-05  -2.3351e-05 
220   5.0437e-04   5.2093e-04   2.0900e-04  -5.8979e-04   5.0285e-05  -2.3635e-05 
221   5.0428e-04   5.2077e-04   2.0912e-04  -5.8952e-04   5.0387e-05  -2.3711e-05 
222   5.2555e-04   5.3433e-04   2.0996e-04  -6.0600e-04   4.4667e-05  -1.8956e-05 
223   5.4042e-04   5.5034e-04   2.2292e-04  -6.1481e-04   4.4991e-05  -1.5712e-05 
224   5.3385e-04   5.4555e-04   2.2106e-04  -6.1083e-04   4.5077e-05  -1.6134e-05 
225   5.3190e-04   5.4418e-04   2.2074e-04  -6.0960e-04   4.5200e-05  -1.6386e-05 
226   5.5019e-04   5.5875e-04   2.3481e-04  -6.2120e-04   3.8487e-05  -1.2997e-05 
227   5.4802e-04   5.5654e-04   2.3328e-04  -6.1953e-04   3.9151e-05  -1.3032e-05 
228   5.4702e-04   5.5581e-04   2.3289e-04  -6.1884e-04   3.9405e-05  -1.3162e-05 
229   5.5278e-04   5.5517e-04   2.3242e-04  -6.1929e-04   3.9083e-05  -1.3255e-05 
230   5.5315e-04   5.5753e-04   2.3393e-04  -6.2050e-04   4.1136e-05  -1.6289e-05 
231   5.5337e-04   5.5744e-04   2.3391e-04  -6.2041e-04   4.0466e-05  -1.5240e-05 
232   5.5367e-04   5.5782e-04   2.3426e-04  -6.2063e-04   4.0449e-05  -1.5085e-05 
233   5.5411e-04   5.5828e-04   2.3463e-04  -6.2090e-04   4.0445e-05  -1.4994e-05 
234   5.5459e-04   5.5876e-04   2.3501e-04  -6.2119e-04   4.0439e-05  -1.4921e-05 
235   5.5509e-04   5.5924e-04   2.3539e-04  -6.2149e-04   4.0428e-05  -1.4853e-05 
236   5.5559e-04   5.5972e-04   2.3577e-04  -6.2178e-04   4.0413e-05  -1.4785e-05 
237   6.2052e-04   6.0059e-04   2.5853e-04  -6.5766e-04   4.1614e-05  -1.0420e-05 
238   6.1004e-04   6.0083e-04   2.5970e-04  -6.5327e-04   4.2516e-05  -1.3278e-05 
239   6.0702e-04   5.9961e-04   2.5885e-04  -6.5215e-04   4.2897e-05  -1.3307e-05 
240   6.0807e-04   6.0250e-04   2.5813e-04  -6.5354e-04   4.1898e-05  -1.1706e-05 
241   6.1816e-04   6.1801e-04   2.5988e-04  -6.6496e-04   4.4807e-05  -1.2656e-05 
242   6.1652e-04   6.1239e-04   2.5926e-04  -6.6166e-04   4.4145e-05  -1.2716e-05 
243   6.2793e-04   6.1261e-04   2.6132e-04  -6.6346e-04   3.9709e-05  -1.1659e-05 
244   6.2239e-04   6.1460e-04   2.6107e-04  -6.6305e-04   4.4670e-05  -1.3260e-05 
245   6.2229e-04   6.1539e-04   2.6183e-04  -6.6341e-04   4.4309e-05  -1.2687e-05 
246   6.2526e-04   6.1800e-04   2.6339e-04  -6.6680e-04   4.7003e-05  -1.3780e-05 
247   6.2476e-04   6.1762e-04   2.6262e-04  -6.6572e-04   4.5505e-05  -1.3307e-05 
248   6.2642e-04   6.1903e-04   2.6533e-04  -6.6607e-04   4.4294e-05  -1.3897e-05 
249   6.2681e-04   6.1990e-04   2.6484e-04  -6.6640e-04   4.5050e-05  -1.3741e-05 
250   6.2741e-04   6.2054e-04   2.6536e-04  -6.6673e-04   4.5117e-05  -1.3653e-05 
251   6.2866e-04   6.2109e-04   2.6590e-04  -6.6699e-04   4.5164e-05  -1.3585e-05 
252   6.4234e-04   6.2407e-04   2.7485e-04  -6.6999e-04   4.0314e-05  -1.1985e-05 
253   6.3762e-04   6.2735e-04   2.7419e-04  -6.7004e-04   4.0022e-05  -9.0265e-06 
254   6.3736e-04   6.2703e-04   2.7455e-04  -6.6972e-04   4.0811e-05  -8.9592e-06 
255   6.4149e-04   6.3554e-04   2.7590e-04  -6.7544e-04   3.7074e-05  -4.8848e-06 
256   6.5423e-04   6.2761e-04   2.8816e-04  -6.7561e-04   4.6013e-05  -5.6834e-06 
257   6.4550e-04   6.2832e-04   2.8591e-04  -6.7264e-04   4.0901e-05  -3.9134e-06 
258   6.4329e-04   6.3285e-04   2.9280e-04  -6.7298e-04   3.9123e-05  -1.0621e-06 
259   6.3679e-04   6.2833e-04   2.8764e-04  -6.6820e-04   3.8532e-05  -8.8518e-07 
260   6.4248e-04   6.3930e-04   2.9832e-04  -6.7448e-04   4.1047e-05  -7.2326e-06 
261   6.4280e-04   6.3802e-04   2.9443e-04  -6.7390e-04   3.9673e-05  -3.8822e-06 
262   6.4283e-04   6.3746e-04   2.9361e-04  -6.7345e-04   3.9471e-05  -3.3175e-06 
263   6.4267e-04   6.3709e-04   2.9319e-04  -6.7133e-04   3.9026e-05  -3.0460e-06 
264   6.5559e-04   6.6172e-04   3.0431e-04  -6.8140e-04   4.2524e-05  -9.6952e-06 
265   6.5112e-04   6.5039e-04   2.9881e-04  -6.7687e-04   4.0959e-05  -4.2075e-06 
266   6.4893e-04   6.4724e-04   2.9760e-04  -6.7484e-04   4.0544e-05  -3.6172e-06 
267   6.7241e-04   6.4757e-04   3.1888e-04  -6.8122e-04   6.3856e-05  -1.5410e-05 
268   6.7494e-04   6.5245e-04   3.1550e-04  -6.8343e-04   5.6430e-05  -1.1642e-05 
269   6.8317e-04   6.7886e-04   3.2161e-04  -6.9777e-04   5.5396e-05  -8.3856e-06 
270   6.8015e-04   6.7467e-04   3.2016e-04  -6.9561e-04   5.5221e-05  -8.6239e-06 
271   6.8091e-04   6.7515e-04   3.1820e-04  -6.9719e-04   5.7117e-05  -1.0075e-05 
272   6.8004e-04   6.7448e-04   3.1870e-04  -6.9634e-04   5.6976e-05  -9.8629e-06 
273   6.7945e-04   6.7408e-04   3.1903e-04  -6.9578e-04   5.6843e-05  -9.6946e-06 
274   6.7894e-04   6.7374e-04   3.1928e-04  -6.9530e-04   5.6768e-05  -9.5889e-06 
275   6.8509e-04   6.8295e-04   3.1865e-04  -7.0408e-04   5.7960e-05  -8.1856e-06 
276   6.8610e-04   7.0186e-04   3.2632e-04  -7.0590e-04   5.4769e-05  -7.1149e-06 
277   6.8686e-04   6.9230e-04   3.2095e-04  -7.0551e-04   5.6196e-05  -9.5757e-06 
278   6.9428e-04   6.9867e-04   3.1690e-04  -7.1373e-04   6.0685e-05  -1.3278e-05 
279   7.0180e-04   7.0328e-04   3.2335e-04  -7.1574e-04   5.7962e-05  -1.1498e-05 
280   7.1102e-04   7.2298e-04   3.2038e-04  -7.3117e-04   5.8099e-05  -1.1014e-05 
281   7.4310e-04   7.2751e-04   3.2866e-04  -7.4409e-04   5.8531e-05  -1.3176e-05 
282   7.6681e-04   7.4697e-04   3.3076e-04  -7.6328e-04   6.8800e-05  -2.1689e-05 
283   7.7381e-04   7.5912e-04   3.4420e-04  -7.7006e-04   7.2860e-05  -2.3420e-05 
284   7.7554e-04   7.5953e-04   3.4288e-04  -7.7106e-04   7.3411e-05  -2.5119e-05 
285   7.7364e-04   7.5760e-04   3.4202e-04  -7.6940e-04   7.2887e-05  -2.4775e-05 
286   7.7280e-04   7.5686e-04   3.4178e-04  -7.6858e-04   7.2680e-05  -2.4546e-05 
287   7.7230e-04   7.5643e-04   3.4174e-04  -7.6803e-04   7.2566e-05  -2.4402e-05 
288   7.7632e-04   7.6114e-04   3.4848e-04  -7.6955e-04   6.7455e-05  -2.0170e-05 
289   7.7521e-04   7.6043e-04   3.4646e-04  -7.6856e-04   6.8617e-05  -2.1432e-05 
290   7.7454e-04   7.5963e-04   3.4590e-04  -7.6811e-04   6.8983e-05  -2.1716e-05 
291   8.3158e-04   7.9138e-04   3.6351e-04  -7.9969e-04   8.4204e-05  -2.2942e-05 
292   8.2450e-04   7.9704e-04   3.5782e-04  -8.0346e-04   7.0213e-05  -1.4512e-05 
293   8.2625e-04   8.0883e-04   3.5987e-04  -8.0836e-04   7.7130e-05  -2.3204e-05 
294   8.4941e-04   8.3151e-04   3.7097e-04  -8.1528e-04   6.6904e-05  -1.9927e-05 
295   8.4654e-04   8.2719e-04   3.7008e-04  -8.1427e-04   6.7630e-05  -1.9669e-05 
296   8.4841e-04   8.2743e-04   3.7400e-04  -8.1697e-04   6.2121e-05  -1.7280e-05 
297   8.4785e-04   8.2639e-04   3.7373e-04  -8.1597e-04   6.2336e-05  -1.7033e-05 
298   8.5465e-04   8.4935e-04   3.8212e-04  -8.2296e-04   6.2264e-05  -1.2625e-05 
299   8.5735e-04   8.4360e-04   3.8236e-04  -8.1991e-04   6.5542e-05  -1.3734e-05 
300   8.9744e-04   8.7171e-04   3.8009e-04  -8.4811e-04   5.7722e-05  -9.3905e-06 
301   9.1061e-04   8.8236e-04   3.8320e-04  -8.5514e-04   6.1592e-05  -1.2924e-05 
302   9.2990e-04   8.8990e-04   3.8416e-04  -8.6508e-04   6.1029e-05  -9.6189e-06 
303   9.2876e-04   8.8693e-04   3.8610e-04  -8.6366e-04   6.0591e-05  -1.0170e-05 
304   9.2985e-04   8.9183e-04   3.8844e-04  -8.6578e-04   6.0481e-05  -1.0984e-05 
305   9.2938e-04   8.8993e-04   3.8863e-04  -8.6485e-04   6.0404e-05  -1.1018e-05 
306   9.2650e-04   8.8089e-04   3.8654e-04  -8.5872e-04   6.6062e-05  -1.2500e-05 
307   9.3667e-04   8.8987e-04   4.0410e-04  -8.6756e-04   7.4677e-05  -1.7988e-05 
308   9.4722e-04   9.0030e-04   4.1527e-04  -8.7262e-04   7.6406e-05  -2.1645e-05 
309   9.5441e-04   8.9981e-04   4.1651e-04  -8.7131e-04   7.6752e-05  -2.0360e-05 
310   9.5248e-04   8.9883e-04   4.1654e-04  -8.7047e-04   7.6583e-05  -2.0172e-05 
311   9.5508e-04   9.0503e-04   4.1374e-04  -8.7465e-04   7.2141e-05  -1.7865e-05 
312   9.5509e-04   9.0204e-04   4.1523e-04  -8.7337e-04   7.3634e-05  -1.8576e-05 
313   9.5611e-04   9.0250e-04   4.1370e-04  -8.7377e-04   7.7659e-05  -2.0265e-05 
314   9.6096e-04   9.0962e-04   4.1971e-04  -8.7804e-04   8.0233e-05  -1.6108e-05 
315   9.5733e-04   9.0603e-04   4.1601e-04  -8.7499e-04   7.7629e-05  -1.8177e-05 
316   9.9382e-04   9.4238e-04   4.2849e-04  -8.9778e-04   1.0951e-04  -5.8057e-05 
317   9.6061e-04   9.1241e-04   4.1370e-04  -8.7436e-04   8.5939e-05  -2.5981e-05 
318   9.7287e-04   9.2152e-04   4.2192e-04  -8.8459e-04   9.3519e-05  -3.1645e-05 
319   9.6649e-04   9.1576e-04   4.1742e-04  -8.7912e-04   9.0534e-05  -2.9041e-05 
320   9.6944e-04   9.3261e-04   4.2722e-04  -8.8510e-04   9.2430e-05  -3.3129e-05 
321   9.6808e-04   9.3035e-04   4.2553e-04  -8.8399e-04   9.2139e-05  -3.2674e-05 
322   9.7081e-04   9.4217e-04   4.3004e-04  -8.8767e-04   9.4386e-05  -4.0012e-05 
323   9.6860e-04   9.3663e-04   4.2691e-04  -8.8607e-04   9.3948e-05  -3.6563e-05 
324   1.0047e-03   9.5535e-04   4.5995e-04  -8.9905e-04   9.1744e-05  -3.0154e-05 
325   1.0225e-03   9.8096e-04   4.6337e-04  -9.1826e-04   9.9462e-05  -3.5960e-05 
326   1.0158e-03   9.9465e-04   4.6213e-04  -9.3307e-04   9.6568e-05  -2.7179e-05 
327   1.0109e-03   9.8876e-04   4.5886e-04  -9.2841e-04   9.6354e-05  -2.7270e-05 
328   1.0080e-03   9.8932e-04   4.5820e-04  -9.2743e-04   9.5101e-05  -2.7447e-05 
329   1.0057e-03   9.8873e-04   4.5855e-04  -9.2362e-04   9.4879e-05  -2.5837e-05 
330   1.0039e-03   9.8681e-04   4.5769e-04  -9.2224e-04   9.4727e-05  -2.5760e-05 
331   1.0404e-03   1.0299e-03   4.6788e-04  -9.3997e-04   9.6377e-05  -1.5449e-05 
332   1.0282e-03   1.0072e-03   4.6657e-04  -9.3016e-04   9.4007e-05  -1.9727e-05 
333   1.0295e-03   1.0040e-03   4.6623e-04  -9.3069e-04   9.1993e-05  -1.8847e-05 
334   1.0371e-03   1.0249e-03   4.6528e-04  -9.3419e-04   9.2486e-05  -1.0794e-05 
335   1.0463e-03   1.0286e-03   4.7119e-04  -9.4153e-04   9.0237e-05  -1.0862e-05 
336   1.0603e-03   1.0387e-03   4.7451e-04  -9.5138e-04   9.4577e-05  -1.1237e-05 
337   1.1226e-03   1.0662e-03   4.9250e-04  -9.7966e-04   1.0301e-04  -1.6393e-05 
338   1.0970e-03   1.0566e-03   4.8768e-04  -9.7566e-04   1.0569e-04  -2.5668e-05 
339   1.0847e-03   1.0475e-03   4.8327e-04  -9.6627e-04   1.0598e-04  -2.6224e-05 
340   1.0931e-03   1.0732e-03   5.0824e-04  -9.7305e-04   1.1118e-04  -1.5735e-05 
341   1.0967e-03   1.0745e-03   5.1042e-04  -9.8310e-04   1.1003e-04  -1.5038e-05 
342   1.1132e-03   1.0782e-03   5.1565e-04  -9.9018e-04   1.0564e-04  -1.1501e-05 
343   1.1246e-03   1.1008e-03   5.1999e-04  -1.0093e-03   1.0767e-04  -9.5659e-06 
344   1.1084e-03   1.0851e-03   5.2389e-04  -9.9604e-04   1.0721e-04  -7.2962e-06 
345   1.1107e-03   1.0804e-03   5.2319e-04  -9.9525e-04   1.0893e-04  -8.6900e-06 
346   1.1147e-03   1.0955e-03   5.3580e-04  -1.0016e-03   1.0661e-04  -1.5384e-05 
347   1.1627e-03   1.1027e-03   5.5378e-04  -1.0097e-03   1.0546e-04  -1.7572e-05 
348   1.1488e-03   1.0937e-03   5.4551e-04  -1.0037e-03   1.0557e-04  -1.4533e-05 
349   1.1405e-03   1.0895e-03   5.4446e-04  -9.9965e-04   1.0645e-04  -1.2910e-05 
350   1.1363e-03   1.0866e-03   5.4262e-04  -9.9759e-04   1.0639e-04  -1.2593e-05 
351   1.1387e-03   1.1143e-03   5.4138e-04  -1.0041e-03   9.8647e-05  -1.1011e-06 
352   1.1358e-03   1.1064e-03   5.3988e-04  -1.0013e-03   1.0113e-04  -4.2747e-06 
353   1.1812e-03   1.1803e-03   5.5203e-04  -1.0245e-03   9.9456e-05   2.2833e-06 
354   1.1704e-03   1.1594e-03   5.5335e-04  -1.0233e-03   1.0799e-04  -6.3711e-06 
355   1.1609e-03   1.1515e-03   5.5099e-04  -1.0171e-03   1.0509e-04  -6.4258e-06 
356   1.2364e-03   1.1781e-03   5.9457e-04  -1.0579e-03   8.8513e-05   2.2103e-06 
357   1.2270e-03   1.1742e-03   5.9649e-04  -1.0501e-03   9.5249e-05   7.9924e-07 
358   1.2188e-03   1.1690e-03   5.9118e-04  -1.0478e-03   9.5920e-05  -5.9278e-07 
359   1.2139e-03   1.1659e-03   5.8854e-04  -1.0451e-03   9.5487e-05  -5.6275e-07 
360   1.2165e-03   1.1766e-03   5.9812e-04  -1.0490e-03   1.0640e-04  -1.5091e-05 
361   1.2131e-03   1.1709e-03   5.9531e-04  -1.0443e-03   9.9322e-05  -9.2723e-06 
362   1.2195e-03   1.1653e-03   5.9261e-04  -1.0455e-03   9.9901e-05  -6.6155e-06 
363   1.2093e-03   1.1714e-03   5.9414e-04  -1.0475e-03   9.7796e-05  -8.5601e-06 
364   1.2083e-03   1.1698e-03   5.9360e-04  -1.0495e-03   9.8070e-05  -8.6027e-06 
365   1.2376e-03   1.2402e-03   6.0161e-04  -1.0894e-03   1.0131e-04  -9.0361e-06 
366   1.2345e-03   1.2215e-03   6.1139e-04  -1.0823e-03   1.0376e-04  -1.0221e-05 
367   1.2751e-03   1.2356e-03   6.3922e-04  -1.1017e-03   1.2051e-04  -2.0634e-05 
368   1.2986e-03   1.2415e-03   6.3775e-04  -1.1050e-03   1.1237e-04  -1.6224e-05 
369   1.2906e-03   1.2389e-03   6.3428e-04  -1.0993e-03   1.1312e-04  -1.1927e-05 
370   1.3108e-03   1.2471e-03   6.4781e-04  -1.1089e-03   1.0605e-04  -8.2306e-06 
371   1.3481e-03   1.2805e-03   6.6028e-04  -1.1224e-03   1.0139e-04   1.0014e-06 
372   1.3377e-03   1.2737e-03   6.6229e-04  -1.1192e-03   1.0389e-04   1.8248e-06 
373   1.3389e-03   1.2817e-03   6.7078e-04  -1.1188e-03   1.0139e-04   1.0270e-05 
374   1.3771e-03   1.3190e-03   7.2366e-04  -1.1534e-03   1.0469e-04   1.9077e-05 
375   1.3674e-03   1.3123e-03   7.1654e-04  -1.1435e-03   1.0624e-04   1.3917e-05 
376   1.3617e-03   1.3086e-03   7.1277e-04  -1.1408e-03   1.0583e-04   1.3841e-05 
377   1.4542e-03   1.2616e-03   7.3474e-04  -1.1876e-03   8.8788e-05   2.0406e-05 
378   1.4212e-03   1.3014e-03   7.5444e-04  -1.1776e-03   1.2568e-04   3.5115e-07 
379   1.3934e-03   1.2921e-03   7.3440e-04  -1.1624e-03   1.1548e-04   9.6563e-07 
380   1.4006e-03   1.3215e-03   7.4249e-04  -1.1700e-03   1.1520e-04   2.4383e-06 
381   1.3865e-03   1.3021e-03   7.3222e-04  -1.1614e-03   1.1335e-04   2.2732e-06 
382   1.3816e-03   1.2972e-03   7.3009e-04  -1.1584e-03   1.1312e-04   2.1968e-06 
383   1.4214e-03   1.3213e-03   7.5196e-04  -1.1783e-03   1.0983e-04   1.2066e-05 
384   1.4121e-03   1.3145e-03   7.5095e-04  -1.1742e-03   1.1091e-04   1.1454e-05 
385   1.4377e-03   1.3402e-03   7.5315e-04  -1.2026e-03   1.4284e-04  -8.3156e-06 
386   1.5036e-03   1.4738e-03   7.7707e-04  -1.2708e-03   1.1831e-04   3.4437e-05 
387   1.4382e-03   1.3596e-03   7.6595e-04  -1.2068e-03   1.1984e-04   9.6118e-06 
388   1.4325e-03   1.3541e-03   7.6356e-04  -1.2035e-03   1.2025e-04   9.2565e-06 
389   1.4428e-03   1.3767e-03   7.7288e-04  -1.2185e-03   1.3142e-04  -9.1584e-07 
390   1.4388e-03   1.4026e-03   7.7728e-04  -1.2241e-03   1.2633e-04   3.4772e-06 
391   1.4367e-03   1.3862e-03   7.7838e-04  -1.2177e-03   1.2541e-04   4.6646e-06 
392   1.4347e-03   1.3839e-03   7.7873e-04  -1.2177e-03   1.2491e-04   6.1301e-06 
393   1.4315e-03   1.3828e-03   7.7742e-04  -1.2165e-03   1.2482e-04   6.1422e-06 
394   1.4875e-03   1.3926e-03   7.9835e-04  -1.2433e-03   1.5406e-04  -3.5348e-06 
395   1.5362e-03   1.4177e-03   8.2693e-04  -1.2782e-03   1.5115e-04   9.7993e-07 
396   1.5587e-03   1.4405e-03   8.4427e-04  -1.2785e-03   1.5904e-04   8.4145e-06 
397   1.5537e-03   1.4486e-03   8.3392e-04  -1.2882e-03   1.5248e-04   1.2399e-05 
398   1.5681e-03   1.4805e-03   8.5012e-04  -1.3081e-03   1.5347e-04   1.8018e-05 
399   1.5585e-03   1.4759e-03   8.4610e-04  -1.3054e-03   1.5173e-04   1.5898e-05 
400   1.5708e-03   1.4789e-03   8.4447e-04  -1.3107e-03   1.6372e-04   6.3982e-06 
401   1.5660e-03   1.4790e-03   8.4300e-04  -1.3096e-03   1.6104e-04   6.6308e-06 
402   1.5708e-03   1.4741e-03   8.4285e-04  -1.3108e-03   1.6168e-04   6.3951e-06 
403   1.5647e-03   1.4712e-03   8.4237e-04  -1.3077e-03   1.6061e-04   6.5827e-06 
404   1.5606e-03   1.4685e-03   8.4165e-04  -1.3055e-03   1.6005e-04   6.6000e-06 
405   1.5595e-03   1.4666e-03   8.4061e-04  -1.3047e-03   1.5978e-04   6.4311e-06 
406   1.5741e-03   1.4987e-03   8.5899e-04  -1.3215e-03   1.5443e-04   5.5235e-06 
407   1.5984e-03   1.4991e-03   8.5849e-04  -1.3246e-03   1.5009e-04   8.1195e-06 
408   1.6020e-03   1.5230e-03   8.7605e-04  -1.3288e-03   1.4867e-04  -1.5556e-06 
409   1.6187e-03   1.5239e-03   8.8069e-04  -1.3449e-03   1.5748e-04   9.9215e-06 
410   1.6565e-03   1.5208e-03   8.7707e-04  -1.3673e-03   1.7229e-04  -7.7388e-07 
411   1.6444e-03   1.5284e-03   8.7394e-04  -1.3618e-03   1.6959e-04   1.4011e-07 
412   1.6437e-03   1.5333e-03   9.0091e-04  -1.3634e-03   1.5750e-04   3.8332e-06 
413   1.6652e-03   1.5457e-03   9.0368e-04  -1.3776e-03   1.5817e-04  -5.7001e-07 
414   1.6401e-03   1.5305e-03   8.8933e-04  -1.3606e-03   1.5361e-04   2.2917e-06 
415   1.7367e-03   1.5958e-03   8.8792e-04  -1.4245e-03   1.6336e-04  -1.8789e-06 
416   1.8828e-03   1.6472e-03   9.5002e-04  -1.5171e-03   1.8719e-04  -2.1104e-05 
417   1.8590e-03   1.6411e-03   9.3341e-04  -1.5095e-03   1.8732e-04  -1.7284e-05 
418   2.0481e-03   1.7781e-03   9.6745e-04  -1.6271e-03   1.7953e-04  -4.5611e-05 
419   1.9756e-03   1.7127e-03   9.4507e-04  -1.6037e-03   1.9141e-04  -3.5671e-05 
420   2.0573e-03   1.8552e-03   9.8766e-04  -1.6794e-03   1.8723e-04  -2.0708e-05 
421   2.0417e-03   1.8381e-03   9.7802e-04  -1.6681e-03   1.8612e-04  -2.3054e-05 
422   2.0356e-03   1.8307e-03   9.7503e-04  -1.6639e-03   1.8622e-04  -2.2264e-05 
423   2.0324e-03   1.8274e-03   9.7319e-04  -1.6624e-03   1.8604e-04  -2.2432e-05 
424   2.0335e-03   1.8370e-03   9.7157e-04  -1.6672e-03   1.8656e-04  -2.6120e-05 
425   2.0363e-03   1.8563e-03   9.9585e-04  -1.6690e-03   1.8565e-04  -2.9728e-05 
426   2.0375e-03   1.8522e-03   9.9968e-04  -1.6700e-03   1.8028e-04  -2.2120e-05 
427   2.0676e-03   1.8784e-03   1.0584e-03  -1.6937e-03   1.9848e-04  -3.5737e-05 
428   2.1472e-03   1.9266e-03   1.0764e-03  -1.7163e-03   2.0428e-04  -2.8471e-05 
429   2.2620e-03   1.9596e-03   1.1563e-03  -1.7479e-03   2.0250e-04  -1.4996e-05 
430   2.2251e-03   1.9604e-03   1.1334e-03  -1.7420e-03   1.9957e-04  -1.3070e-05 
431   2.2363e-03   1.9850e-03   1.1805e-03  -1.7488e-03   1.8272e-04   3.1629e-07 
432   2.2526e-03   1.9825e-03   1.1545e-03  -1.7554e-03   1.9771e-04  -8.5301e-06 
433   2.2716e-03   1.9926e-03   1.1732e-03  -1.7684e-03   1.9932e-04  -8.8190e-06 
434   2.2813e-03   2.0222e-03   1.1840e-03  -1.7796e-03   1.9708e-04   5.1675e-06 
435   2.2748e-03   2.0090e-03   1.1781e-03  -1.7725e-03   1.9532e-04   3.9204e-06 
436   2.2948e-03   2.0098e-03   1.1823e-03  -1.7981e-03   2.0993e-04  -3.9641e-06 
437   2.3362e-03   2.0126e-03   1.2015e-03  -1.8287e-03   2.1135e-04  -3.7332e-06 
438   2.3654e-03   2.0218e-03   1.2054e-03  -1.8404e-03   2.0007e-04   5.4006e-06 
439   2.3611e-03   2.0584e-03   1.2338e-03  -1.8495e-03   1.8871e-04  -9.8423e-06 
440   2.4188e-03   2.0734e-03   1.2445e-03  -1.8871e-03   1.7608e-04  -1.9220e-05 
441   2.4629e-03   2.1172e-03   1.2666e-03  -1.9157e-03   1.7577e-04  -1.2743e-05 
442   2.5088e-03   2.1293e-03   1.2833e-03  -1.9366e-03   1.9383e-04  -7.8758e-06 
443   2.5374e-03   2.1753e-03   1.3119e-03  -1.9560e-03   2.0089e-04  -1.0132e-05 
444   2.5663e-03   2.2330e-03   1.3074e-03  -1.9921e-03   2.0555e-04  -1.6592e-05 
445   2.6953e-03   2.3257e-03   1.3539e-03  -2.0683e-03   1.6730e-04   2.6198e-06 
446   2.9798e-03   2.5291e-03   1.2481e-03  -2.2303e-03   2.6611e-04  -1.2287e-04 
447   2.7898e-03   2.3780e-03   1.3313e-03  -2.1263e-03   2.0945e-04  -3.4706e-05 
448   2.7835e-03   2.3860e-03   1.3310e-03  -2.1258e-03   2.0383e-04  -2.8578e-05 
449   2.7851e-03   2.3826e-03   1.3350e-03  -2.1306e-03   2.0530e-04  -3.7426e-05 
450   2.7831e-03   2.3743e-03   1.3366e-03  -2.1271e-03   2.0497e-04  -3.6904e-05 
451   2.7840e-03   2.3705e-03   1.3433e-03  -2.1308e-03   2.0494e-04  -4.0454e-05 
452   2.8126e-03   2.3874e-03   1.3663e-03  -2.1464e-03   2.0491e-04  -3.0004e-05 
453   2.8213e-03   2.4649e-03   1.3755e-03  -2.1923e-03   1.9380e-04  -1.5053e-05 
454   2.8189e-03   2.4665e-03   1.3667e-03  -2.1927e-03   1.7978e-04  -5.7381e-06 
455   2.8055e-03   2.4545e-03   1.3654e-03  -2.1836e-03   1.8814e-04  -1.4295e-05 
456   2.8055e-03   2.4435e-03   1.3546e-03  -2.1796e-03   1.8247e-04  -1.1831e-05 
457   2.8424e-03   2.4773e-03   1.3639e-03  -2.1905e-03   1.8188e-04  -1.9942e-06 
458   2.8356e-03   2.4814e-03   1.3678e-03  -2.1969e-03   1.8609e-04  -6.7535e-06 
459   2.8420e-03   2.4774e-03   1.3688e-03  -2.2034e-03   1.9532e-04  -9.7009e-06 
460   2.9279e-03   2.5756e-03   1.4524e-03  -2.2732e-03   1.9880e-04  -1.7024e-05 
461   2.9482e-03   2.5811e-03   1.4579e-03  -2.2715e-03   1.9577e-04  -2.6266e-05 
462   3.3998e-03   2.8700e-03   1.4755e-03  -2.5701e-03   1.4752e-04  -1.6708e-05 
463   3.5371e-03   2.9731e-03   1.5145e-03  -2.6392e-03   1.6716e-04   9.3374e-06 
464   3.4896e-03   2.9325e-03   1.4961e-03  -2.6041e-03   1.6687e-04   4.7117e-06 
465   3.4733e-03   2.9701e-03   1.4906e-03  -2.6082e-03   1.6534e-04   9.4031e-06 
466   3.5692e-03   3.0729e-03   1.4381e-03  -2.7383e-03   1.6084e-04  -8.2401e-05 
467   3.5017e-03   3.0321e-03   1.4719e-03  -2.6733e-03   1.4717e-04  -4.0327e-05 
468   3.5536e-03   3.0418e-03   1.4942e-03  -2.6946e-03   1.4561e-04  -3.5328e-05 
469   3.5437e-03   3.0314e-03   1.4928e-03  -2.6859e-03   1.4598e-04  -3.4892e-05 
470   3.5668e-03   3.0998e-03   1.4946e-03  -2.7408e-03   1.4494e-04  -2.8418e-05 
471   3.6379e-03   3.1334e-03   1.5304e-03  -2.7670e-03   1.7240e-04  -4.8480e-05 
472   3.5978e-03   3.1157e-03   1.5169e-03  -2.7404e-03   1.6335e-04  -4.2911e-05 
473   3.5792e-03   3.1027e-03   1.5139e-03  -2.7306e-03   1.5914e-04  -4.2538e-05 
474   3.5671e-03   3.1016e-03   1.5057e-03  -2.7163e-03   1.5245e-04  -3.8501e-05 
475   3.6361e-03   3.2276e-03   1.5768e-03  -2.8061e-03   1.3628e-04  -4.7080e-05 
476   3.6839e-03   3.2934e-03   1.6200e-03  -2.8141e-03   1.3387e-04  -5.6915e-05 
477   3.6564e-03   3.2855e-03   1.6154e-03  -2.8034e-03   1.4624e-04  -6.4517e-05 
478   3.9532e-03   3.4279e-03   1.6635e-03  -2.9670e-03   1.2088e-04  -3.6664e-05 
479   3.9109e-03   3.4246e-03   1.6703e-03  -2.9491e-03   1.2106e-04  -3.9684e-05 
480   3.9276e-03   3.4257e-03   1.6930e-03  -2.9572e-03   1.3699e-04  -4.8385e-05 
481   3.9099e-03   3.4176e-03   1.6898e-03  -2.9430e-03   1.3299e-04  -4.2061e-05 
482   3.8988e-03   3.4120e-03   1.6973e-03  -2.9433e-03   1.2245e-04  -3.9312e-05 
483   3.8852e-03   3.4092e-03   1.6921e-03  -2.9287e-03   1.2327e-04  -3.7900e-05 
484   3.9608e-03   3.4503e-03   1.7722e-03  -2.9439e-03   8.9933e-05  -1.2567e-05 
485   3.9441e-03   3.4440e-03   1.7690e-03  -2.9367e-03   9.0399e-05  -1.3603e-05 
486   3.9574e-03   3.4864e-03   1.7654e-03  -2.9433e-03   7.6498e-05  -9.9412e-06 
487   4.0222e-03   3.5255e-03   1.7922e-03  -2.9639e-03   7.0198e-05   5.9378e-06 
488   4.0331e-03   3.5377e-03   1.7879e-03  -2.9711e-03   8.1823e-05  -5.2406e-06 
489   4.1431e-03   3.7354e-03   1.8375e-03  -3.0651e-03   1.2280e-04   3.3647e-05 
490   4.2016e-03   3.8352e-03   1.8181e-03  -3.1120e-03   8.1585e-05   6.1168e-05 
491   4.1792e-03   3.8202e-03   1.8281e-03  -3.0989e-03   8.2924e-05   4.9287e-05 
492   4.2855e-03   3.9055e-03   1.8786e-03  -3.1634e-03   7.7554e-05   4.8579e-05 
493   4.2763e-03   3.9188e-03   1.9287e-03  -3.1599e-03   5.7289e-05   6.9144e-05 
494   4.2642e-03   3.9213e-03   1.9224e-03  -3.1540e-03   5.6405e-05   6.6221e-05 
495   4.2207e-03   3.9148e-03   1.8900e-03  -3.1109e-03   3.2468e-05   7.3323e-05 
496   4.2306e-03   3.9289e-03   1.9270e-03  -3.1124e-03   1.1904e-05   8.7369e-05 
497   4.2863e-03   4.0430e-03   1.9792e-03  -3.1406e-03   5.2013e-06   9.4158e-05 
498   4.3768e-03   4.1549e-03   2.0313e-03  -3.2054e-03   7.9985e-06   9.2831e-05 
499   4.3397e-03   4.1531e-03   2.0317e-03  -3.2020e-03  -1.0135e-05   9.1979e-05 
500   4.3450e-03   4.2060e-03   2.0783e-03  -3.2333e-03  -3.5123e-05   1.3006e-04 
501   4.3553e-03   4.2227e-03   2.0888e-03  -3.2397e-03  -2.7514e-05   1.1799e-04 
502   4.4041e-03   4.2796e-03   2.1222e-03  -3.2683e-03  -2.7785e-05   1.1285e-04 
503   4.3785e-03   4.2831e-03   2.1271e-03  -3.2532e-03  -3.1134e-05   1.1625e-04 
504   4.4448e-03   4.3406e-03   2.1363e-03  -3.2774e-03  -3.7097e-05   1.1898e-04 
505   4.4151e-03   4.3243e-03   2.1261e-03  -3.2631e-03  -3.8418e-05   1.2286e-04 
506   4.4439e-03   4.3682e-03   2.1353e-03  -3.2890e-03  -5.0458e-05   1.2303e-04 
507   4.4617e-03   4.4080e-03   2.1435e-03  -3.2965e-03  -5.8364e-05   1.2154e-04 
508   4.5070e-03   4.5571e-03   2.2137e-03  -3.3762e-03  -4.5321e-05   9.0057e-05 
509   4.4958e-03   4.5727e-03   2.1997e-03  -3.3661e-03  -5.0139e-05   8.5790e-05 
510   4.4860e-03   4.5551e-03   2.1912e-03  -3.3472e-03  -7.2071e-05   1.0461e-04 
511   4.5056e-03   4.5608e-03   2.1880e-03  -3.3432e-03  -5.4729e-05   9.3374e-05 
512   4.4886e-03   4.5763e-03   2.2539e-03  -3.3513e-03  -5.3206e-05   7.2850e-05 
513   4.5990e-03   4.7937e-03   2.3252e-03  -3.4625e-03  -7.8962e-05   1.2673e-04 
514   4.6939e-03   4.9060e-03   2.3914e-03  -3.4856e-03  -1.1700e-04   1.5491e-04 
515   4.6571e-03   4.9844e-03   2.3963e-03  -3.4597e-03  -8.3163e-05   6.4032e-05 
516   4.6896e-03   4.9974e-03   2.4077e-03  -3.4945e-03  -1.1192e-04   1.4694e-04 
517   5.0485e-03   5.4788e-03   2.4953e-03  -3.8350e-03  -9.0411e-05   2.0555e-04 
518   5.2679e-03   5.7302e-03   2.6822e-03  -3.9873e-03  -1.0658e-05   1.3805e-04 
519   5.2068e-03   5.8020e-03   2.7173e-03  -3.9620e-03  -8.2700e-05   1.6053e-04 
520   5.1411e-03   5.7114e-03   2.6627e-03  -3.9202e-03  -7.4829e-05   1.4993e-04 
521   5.1078e-03   5.7683e-03   2.6722e-03  -3.9067e-03  -5.0096e-05   1.3545e-04 
522   5.3191e-03   5.8869e-03   2.7391e-03  -4.0159e-03  -2.2649e-05   1.2481e-04 
523   5.2270e-03   5.9611e-03   2.7984e-03  -3.9802e-03  -4.2564e-05   1.4454e-04 
524   5.1480e-03   6.0513e-03   2.7775e-03  -3.9913e-03  -2.2718e-05   1.2193e-04 
525   5.3540e-03   6.1168e-03   2.9159e-03  -4.1093e-03  -3.6645e-05   6.3946e-05 
526   5.9198e-03   6.8520e-03   3.2065e-03  -4.4698e-03  -9.6615e-05   1.5537e-04 
527   5.8088e-03   6.7960e-03   3.3400e-03  -4.4420e-03  -2.3544e-04   2.3219e-04 
528   6.1658e-03   6.9509e-03   3.4902e-03  -4.5927e-03  -1.3397e-04   1.6182e-04 
529   6.2302e-03   7.0281e-03   3.5930e-03  -4.5781e-03  -9.1405e-05   1.3933e-04 
530   6.2118e-03   6.9766e-03   3.5192e-03  -4.5632e-03  -1.1031e-04   1.5024e-04 
531   6.2438e-03   7.0441e-03   3.5965e-03  -4.5704e-03  -1.3798e-04   1.8152e-04 
532   6.2586e-03   7.1223e-03   3.5693e-03  -4.6121e-03  -1.8682e-04   2.2614e-04 
533   6.4060e-03   7.3660e-03   3.8059e-03  -4.7256e-03  -2.6576e-04   2.5979e-04 
534   6.3672e-03   7.2868e-03   3.7990e-03  -4.6926e-03  -2.5507e-04   2.4910e-04 
535   6.3466e-03   7.2532e-03   3.7905e-03  -4.6717e-03  -2.5678e-04   2.4933e-04 
536   6.3157e-03   7.2150e-03   3.7783e-03  -4.6469e-03  -2.5847e-04   2.5032e-04 
537   6.2845e-03   7.1760e-03   3.7662e-03  -4.6210e-03  -2.6032e-04   2.5106e-04 
538   6.3608e-03   7.2626e-03   3.8460e-03  -4.6551e-03  -2.2665e-04   2.1237e-04 
539   6.4005e-03   7.2672e-03   3.8716e-03  -4.6809e-03  -2.2437e-04   2.2670e-04 
540   6.3835e-03   7.2442e-03   3.8559e-03  -4.6655e-03  -2.2879e-04   2.3370e-04 
541   6.6379e-03   7.6003e-03   4.1613e-03  -4.7527e-03  -3.1733e-04   2.6160e-04 
542   6.5443e-03   7.3535e-03   4.0011e-03  -4.7228e-03  -2.5904e-04   2.2882e-04 
543   6.4707e-03   7.2841e-03   3.9630e-03  -4.6689e-03  -2.5912e-04   2.3422e-04 
544   6.4230e-03   7.2262e-03   3.9387e-03  -4.6330e-03  -2.5870e-04   2.3378e-04 
545   6.5303e-03   7.3727e-03   4.0066e-03  -4.7660e-03  -2.7895e-04   2.7840e-04 
546   7.2096e-03   7.7061e-03   4.4594e-03  -5.0725e-03  -3.1404e-04   3.4866e-04 
547   7.1312e-03   7.8286e-03   4.5152e-03  -5.0627e-03  -2.8596e-04   2.7297e-04 
548   7.5993e-03   7.9252e-03   4.4691e-03  -5.2290e-03  -4.7276e-04   4.5351e-04 
549   7.3618e-03   7.8763e-03   4.4801e-03  -5.1391e-03  -3.5619e-04   3.5302e-04 
550   7.4196e-03   8.0171e-03   4.5678e-03  -5.1749e-03  -3.3099e-04   3.5028e-04 
551   7.3733e-03   7.9527e-03   4.5375e-03  -5.1318e-03  -3.4565e-04   3.4900e-04 
552   7.3557e-03   7.8971e-03   4.5278e-03  -5.1175e-03  -3.3470e-04   3.4576e-04 
553   7.3351e-03   7.8547e-03   4.5074e-03  -5.1064e-03  -3.3324e-04   3.4385e-04 
554   7.6566e-03   8.1561e-03   4.9518e-03  -5.3573e-03  -3.3195e-04   3.3356e-04 
555   7.6123e-03   8.0812e-03   4.7152e-03  -5.2631e-03  -3.3098e-04   3.4759e-04 
556   7.6213e-03   8.1536e-03   4.9487e-03  -5.3066e-03  -3.3013e-04   3.4202e-04 
557   7.7913e-03   8.3225e-03   5.1289e-03  -5.4020e-03  -3.5592e-04   4.0629e-04 
558   7.5372e-03   8.1294e-03   4.8595e-03  -5.2444e-03  -3.3076e-04   3.7616e-04 
559   7.4366e-03   8.0504e-03   4.9406e-03  -5.2217e-03  -3.3743e-04   3.9085e-04 
560   7.6566e-03   8.2416e-03   5.0254e-03  -5.3196e-03  -3.1206e-04   4.1269e-04 
561   7.6491e-03   8.2182e-03   5.0366e-03  -5.3080e-03  -3.1786e-04   4.1630e-04 
562   7.6202e-03   8.1929e-03   5.0078e-03  -5.2849e-03  -3.1385e-04   4.2629e-04 
563   7.9755e-03   8.6089e-03   5.4525e-03  -5.4597e-03  -3.6642e-04   4.5083e-04 
564   7.9376e-03   8.5890e-03   5.3778e-03  -5.4320e-03  -3.5867e-04   4.5658e-04 
565   8.0276e-03   8.7596e-03   5.4432e-03  -5.5676e-03  -3.7369e-04   5.0903e-04 
566   8.0927e-03   8.7097e-03   5.4147e-03  -5.5558e-03  -3.2555e-04   5.0865e-04 
567   8.1147e-03   8.6208e-03   5.4269e-03  -5.5532e-03  -4.0265e-04   5.6926e-04 
568   8.4701e-03   8.5907e-03   5.6381e-03  -5.6749e-03  -8.8576e-05   5.6919e-04 
569   8.3995e-03   8.5249e-03   5.4488e-03  -5.6110e-03  -1.8783e-04   5.2939e-04 
570   8.5230e-03   8.8808e-03   5.6805e-03  -5.7364e-03  -2.2555e-04   5.1128e-04 
571   8.6580e-03   9.0127e-03   5.7626e-03  -5.8053e-03  -2.5686e-04   5.2146e-04 
572   9.0107e-03   9.4705e-03   6.0639e-03  -6.0193e-03  -2.5722e-04   5.4772e-04 
573   8.8668e-03   9.2777e-03   5.8803e-03  -5.9573e-03  -2.2544e-04   5.4505e-04 
574   8.8567e-03   9.2755e-03   5.8639e-03  -5.9532e-03  -1.9991e-04   5.3446e-04 
575   8.7699e-03   9.2603e-03   5.9058e-03  -5.9002e-03  -2.4063e-04   5.6390e-04 
576   8.8504e-03   9.3006e-03   5.9584e-03  -5.9525e-03  -2.1727e-04   5.6829e-04 
577   8.7861e-03   9.2095e-03   5.9167e-03  -5.9065e-03  -1.9661e-04   5.5134e-04 
578   9.5798e-03   1.0144e-02   6.2537e-03  -6.3574e-03  -3.9077e-04   8.4848e-04 
579   8.8991e-03   9.4605e-03   5.9035e-03  -5.9998e-03  -2.8274e-04   6.2419e-04 
580   8.9454e-03   9.4016e-03   5.9100e-03  -6.0028e-03  -2.7607e-04   6.4691e-04 
581   8.8155e-03   9.2916e-03   5.8411e-03  -5.9548e-03  -2.2025e-04   6.0494e-04 
582   8.8813e-03   9.3733e-03   5.9147e-03  -5.9890e-03  -1.8891e-04   6.3251e-04 
583   8.7436e-03   9.0846e-03   5.7908e-03  -5.8600e-03  -1.7078e-04   6.6392e-04 
584   8.7282e-03   9.1845e-03   5.8904e-03  -5.8980e-03  -1.6234e-04   6.8004e-04 
585   8.6978e-03   9.6218e-03   6.4834e-03  -5.8954e-03  -1.8555e-04   6.9432e-04 
586   8.7509e-03   9.3054e-03   6.2668e-03  -5.9343e-03  -1.2911e-04   6.9226e-04 
587   8.9935e-03   9.5218e-03   6.4397e-03  -6.0393e-03  -1.3066e-04   7.1363e-04 
588   8.6782e-03   9.2132e-03   6.2293e-03  -5.8688e-03  -8.6996e-05   6.6488e-04 
589   9.2424e-03   9.7742e-03   6.6906e-03  -6.1662e-03  -1.2083e-04   7.4157e-04 
590   9.2743e-03   9.8533e-03   6.6973e-03  -6.1926e-03  -1.7175e-04   7.6080e-04 
591   9.3030e-03   9.9242e-03   6.7610e-03  -6.1984e-03  -2.8453e-04   8.7788e-04 
592   9.4819e-03   9.8007e-03   6.8009e-03  -6.2330e-03  -3.3902e-04   8.1881e-04 
593   8.9062e-03   9.3805e-03   6.2457e-03  -6.0684e-03  -3.0194e-04   8.4253e-04 
594   9.0873e-03   9.6212e-03   6.5356e-03  -6.1757e-03  -3.5178e-04   8.8376e-04 
595   8.9229e-03   9.4456e-03   6.5491e-03  -6.0879e-03  -3.3585e-04   9.0720e-04 
596   8.9520e-03   9.4711e-03   6.4543e-03  -6.1045e-03  -3.3576e-04   9.4191e-04 
597   8.9290e-03   9.3953e-03   6.4351e-03  -6.0801e-03  -3.0821e-04   9.3090e-04 
598   8.8702e-03   9.5018e-03   6.5464e-03  -6.1321e-03  -2.3080e-04   9.2942e-04 
599   8.7203e-03   9.2130e-03   6.4149e-03  -6.0391e-03  -2.2759e-04   8.8863e-04 
600   8.7982e-03   9.4137e-03   6.5271e-03  -6.0418e-03  -2.9952e-04   9.2245e-04 
601   8.6687e-03   9.2628e-03   6.4580e-03  -6.0034e-03  -2.0990e-04   8.7133e-04 
602   8.6836e-03   9.2901e-03   6.5290e-03  -6.0087e-03  -1.9582e-04   8.6818e-04 
603   8.8522e-03   9.3042e-03   6.5617e-03  -6.0687e-03  -1.0463e-04   8.1298e-04 
604   9.0583e-03   9.5439e-03   6.7475e-03  -6.1881e-03  -2.7856e-05   8.0112e-04 
605   8.8474e-03   9.3548e-03   6.5716e-03  -6.1188e-03   7.8992e-06   7.6236e-04 
606   8.8756e-03   9.3926e-03   6.6060e-03  -6.1530e-03   1.0045e-05   7.7471e-04 
607   9.2265e-03   9.6311e-03   6.8959e-03  -6.2999e-03   6.5862e-06   7.6553e-04 
608   9.2007e-03   9.9169e-03   7.4284e-03  -6.3393e-03   4.3467e-05   7.2936e-04 
609   9.0038e-03   9.5957e-03   7.0473e-03  -6.2012e-03   4.5751e-05   7.4159e-04 
610   8.9889e-03   9.5759e-03   7.0195e-03  -6.1897e-03   2.5488e-05   7.1947e-04 
611   8.9017e-03   9.5051e-03   6.9660e-03  -6.1442e-03   4.4511e-05   7.0113e-04 
612   8.1061e-03   9.0672e-03   6.8164e-03  -5.8572e-03  -1.2053e-04   8.1818e-04 
613   8.4438e-03   9.2138e-03   6.6671e-03  -6.0628e-03   4.0579e-06   7.8340e-04 
614   8.6867e-03   9.3459e-03   6.9615e-03  -6.1789e-03   6.9939e-05   7.4945e-04 
615   8.6763e-03   9.4625e-03   6.9293e-03  -6.1385e-03   2.6786e-05   8.0858e-04 
616   8.3264e-03   9.0552e-03   6.7122e-03  -5.9272e-03   2.4661e-05   7.4012e-04 
617   9.1498e-03   9.9581e-03   7.3126e-03  -6.3308e-03   2.1705e-04   7.5536e-04 
618   9.2354e-03   1.0320e-02   7.7096e-03  -6.6675e-03   3.6188e-04   3.6057e-04 
619   8.9411e-03   9.9108e-03   7.4208e-03  -6.4074e-03   2.1275e-04   6.7086e-04 
620   9.2984e-03   1.0202e-02   7.6653e-03  -6.7464e-03  -7.2716e-05   8.0071e-04 
621   8.5422e-03   9.7300e-03   7.1110e-03  -6.3357e-03   6.1465e-05   7.2099e-04 
622   8.7902e-03   9.9248e-03   7.1964e-03  -6.4936e-03   6.9494e-05   7.0562e-04 
623   8.3219e-03   9.4552e-03   6.8415e-03  -6.2428e-03   9.6023e-05   7.0548e-04 
624   8.4813e-03   9.5295e-03   6.9242e-03  -6.2986e-03   8.4983e-05   7.4018e-04 
625   8.2020e-03   9.3829e-03   6.7247e-03  -6.2275e-03   1.4472e-04   6.6005e-04 
626   8.0045e-03   8.9597e-03   6.3791e-03  -6.0408e-03   1.4558e-04   6.7582e-04 
627   8.6099e-03   9.4542e-03   6.9008e-03  -6.3420e-03   1.5644e-04   7.1361e-04 
628   8.3418e-03   9.2167e-03   6.6462e-03  -6.2466e-03   2.0882e-04   6.0945e-04 
629   8.1191e-03   8.7283e-03   6.2099e-03  -6.0248e-03   1.5678e-04   6.4711e-04 
630   8.1320e-03   8.7329e-03   6.2613e-03  -6.0145e-03   1.6281e-04   6.7516e-04 
631   8.0939e-03   8.6698e-03   6.1744e-03  -5.9768e-03   1.8005e-04   6.6363e-04 
632   8.4496e-03   8.9494e-03   6.2619e-03  -6.1429e-03   4.1720e-04   6.3048e-04 
633   8.1465e-03   9.1464e-03   6.3008e-03  -6.1202e-03   2.1390e-04   7.0879e-04 
634   8.4014e-03   9.2390e-03   6.6112e-03  -6.1921e-03   2.1994e-04   7.0058e-04 
635   8.4613e-03   9.6401e-03   6.9002e-03  -6.2279e-03   2.9070e-04   7.0021e-04 
636   8.7361e-03   9.5374e-03   6.7607e-03  -6.3202e-03   2.0961e-04   6.9392e-04 
637   8.5249e-03   9.3426e-03   6.6374e-03  -6.1640e-03   2.4413e-04   6.7880e-04 
638   8.5601e-03   9.4110e-03   6.4820e-03  -6.2615e-03   4.1498e-04   5.6086e-04 
639   8.3797e-03   9.1860e-03   6.3595e-03  -6.1562e-03   2.5816e-04   5.9842e-04 
640   8.6666e-03   9.1954e-03   6.3905e-03  -6.1882e-03   5.0603e-04   4.6066e-04 
641   8.4940e-03   9.4800e-03   6.4230e-03  -6.2657e-03   4.5263e-04   5.2087e-04 
642   9.3531e-03   9.9712e-03   7.6111e-03  -6.7904e-03   5.8262e-04   3.1430e-04 
643   9.0553e-03   9.9871e-03   7.3339e-03  -6.5951e-03   5.1818e-04   4.5111e-04 
644   8.8949e-03   9.9999e-03   7.2644e-03  -6.5412e-03   4.7481e-04   4.4591e-04 
645   8.8043e-03   9.8537e-03   7.1641e-03  -6.4646e-03   4.9047e-04   4.3585e-04 
646   8.7878e-03   9.8639e-03   7.1122e-03  -6.4226e-03   4.9140e-04   4.3240e-04 
647   8.6301e-03   9.9704e-03   6.8875e-03  -6.4483e-03   4.7949e-04   4.7873e-04 
648   8.8336e-03   1.0191e-02   7.1790e-03  -6.4724e-03   1.0691e-03   2.1487e-05 
649   8.1617e-03   9.7054e-03   6.6780e-03  -6.2372e-03   7.1863e-04   2.0463e-04 
650   8.7932e-03   1.0036e-02   7.0236e-03  -6.4985e-03   8.5645e-04   1.7830e-04 
651   8.3669e-03   9.6717e-03   6.5892e-03  -6.2600e-03   8.4605e-04   8.0055e-05 
652   8.3174e-03   9.6535e-03   6.5522e-03  -6.2516e-03   8.4902e-04   1.0600e-04 
653   7.9981e-03   9.8462e-03   6.5377e-03  -6.2525e-03   7.7839e-04   2.4844e-04 
654   7.8893e-03   9.7008e-03   6.4297e-03  -6.1887e-03   7.0882e-04   2.4790e-04 
655   7.8994e-03   9.7257e-03   6.3922e-03  -6.1991e-03   7.3226e-04   2.1609e-04 
656   7.8382e-03   9.6319e-03   6.3348e-03  -6.1508e-03   7.2057e-04   2.1154e-04 
657   7.6811e-03   9.4719e-03   6.2448e-03  -6.0743e-03   6.6208e-04   2.1418e-04 
658   7.7135e-03   9.4184e-03   6.2536e-03  -6.0659e-03   6.6119e-04   2.1445e-04 
659   7.6607e-03   9.3403e-03   6.2252e-03  -6.0221e-03   6.2134e-04   2.0974e-04 
660   7.6023e-03   9.2491e-03   6.1621e-03  -5.9664e-03   6.1659e-04   1.9576e-04 
661   7.5970e-03   9.2988e-03   6.1945e-03  -5.9748e-03   6.0903e-04   1.9025e-04 
662   7.6265e-03   9.3788e-03   6.1973e-03  -6.0072e-03   6.7157e-04   1.0176e-04 
663   7.6731e-03   9.3086e-03   6.2430e-03  -5.9899e-03   6.4829e-04   6.8722e-05 
664   7.4693e-03   9.3170e-03   6.0487e-03  -5.9510e-03   6.3258e-04   8.2482e-05 
665   7.5531e-03   9.4191e-03   6.1941e-03  -5.9696e-03   6.3027e-04   5.8384e-05 
666   7.7880e-03   9.5792e-03   6.3358e-03  -6.0439e-03   7.9824e-04  -1.9172e-05 
667   7.0538e-03   8.7693e-03   5.8860e-03  -5.6085e-03   7.5945e-04   7.6980e-05 
668   7.3141e-03   8.8207e-03   6.0662e-03  -5.7379e-03   6.9512e-04   5.9980e-05 
669   7.4049e-03   8.8892e-03   6.0560e-03  -5.7936e-03   6.8451e-04   1.0138e-04 
670   7.6737e-03   9.1274e-03   6.0929e-03  -5.8937e-03   5.0809e-04   2.5745e-04 
671   7.6821e-03   9.0874e-03   6.0560e-03  -5.8577e-03   4.7175e-04   2.7384e-04 
672   7.5434e-03   8.9513e-03   5.9625e-03  -5.7917e-03   5.1201e-04   2.0952e-04 
673   7.4600e-03   8.9563e-03   6.0428e-03  -5.7842e-03   5.0894e-04   2.2049e-04 
674   7.2941e-03   8.7311e-03   5.9477e-03  -5.6694e-03   5.7715e-04   1.1323e-04 
675   7.4206e-03   9.0905e-03   6.0051e-03  -5.7481e-03   6.0367e-04   1.1770e-04 
676   7.7191e-03   1.0329e-02   6.3058e-03  -6.0802e-03   5.9589e-04   1.8542e-04 
677   7.7344e-03   9.9590e-03   6.2119e-03  -5.9996e-03   5.7111e-04   1.6463e-04 
678   7.5619e-03   9.6874e-03   6.0190e-03  -5.8666e-03   5.4866e-04   1.7021e-04 
679   7.5239e-03   9.6771e-03   6.0307e-03  -5.8476e-03   5.3935e-04   1.7007e-04 
680   7.3595e-03   9.4800e-03   5.9878e-03  -5.7441e-03   5.2341e-04   1.7521e-04 
681   7.4522e-03   9.5532e-03   6.0588e-03  -5.7712e-03   5.3788e-04   1.2903e-04 
682   7.2834e-03   9.4194e-03   5.9420e-03  -5.6690e-03   5.2040e-04   1.2112e-04 
683   7.2285e-03   9.2275e-03   5.8906e-03  -5.6229e-03   5.2721e-04   1.1044e-04 
684   7.2390e-03   9.2801e-03   6.0208e-03  -5.5632e-03   3.0861e-04   2.8769e-04 
685   6.9771e-03   9.1264e-03   5.7939e-03  -5.4235e-03   3.5001e-04   2.4159e-04 
686   6.9363e-03   8.9899e-03   5.7473e-03  -5.3713e-03   3.2971e-04   2.3254e-04 
687   6.8282e-03   8.7230e-03   5.6535e-03  -5.2659e-03   3.8035e-04   1.7534e-04 
688   7.1123e-03   8.8075e-03   5.8443e-03  -5.3495e-03   4.8617e-04   1.2898e-04 
689   7.0322e-03   8.6597e-03   5.7470e-03  -5.2802e-03   4.6075e-04   1.3899e-04 
690   6.9167e-03   8.6169e-03   5.6983e-03  -5.2015e-03   4.4355e-04   1.4133e-04 
691   6.7616e-03   8.5567e-03   5.6331e-03  -5.1278e-03   4.3299e-04   1.4547e-04 
692   7.1192e-03   9.0822e-03   6.0578e-03  -5.3871e-03   2.9516e-04   2.5345e-04 
693   6.9793e-03   8.9243e-03   6.0129e-03  -5.3318e-03   3.4041e-04   1.7777e-04 
694   6.9295e-03   8.8285e-03   5.9737e-03  -5.2811e-03   3.7078e-04   1.6478e-04 
695   7.1710e-03   9.4065e-03   6.4500e-03  -5.4652e-03   6.4720e-04  -5.0874e-05 
696   6.9774e-03   9.1467e-03   6.1877e-03  -5.3358e-03   4.8204e-04   8.7145e-05 
697   6.7908e-03   8.9610e-03   6.0021e-03  -5.2382e-03   4.1876e-04   1.0328e-04 
698   6.7461e-03   8.9150e-03   5.9841e-03  -5.2142e-03   4.2256e-04   9.0030e-05 
699   6.6787e-03   8.8499e-03   5.9312e-03  -5.1675e-03   4.1533e-04   9.5999e-05 
700   6.6044e-03   8.7417e-03   6.0630e-03  -5.1432e-03   4.6817e-04   1.2719e-04 
701   6.6582e-03   8.6533e-03   6.0046e-03  -5.1272e-03   5.4294e-04   3.8271e-05 
702   6.6364e-03   8.5818e-03   5.9808e-03  -5.1043e-03   5.3447e-04   2.2388e-05 
703   6.6330e-03   8.5043e-03   5.9846e-03  -5.0779e-03   5.3456e-04   5.2616e-05 
704   6.7509e-03   8.5553e-03   6.0120e-03  -5.0792e-03   5.4235e-04   9.0063e-05 
705   6.5898e-03   8.5124e-03   5.9783e-03  -5.0162e-03   4.9144e-04   9.8366e-05 
706   6.7806e-03   8.8474e-03   6.1421e-03  -5.1328e-03   4.9422e-04   7.5032e-05 
707   6.8559e-03   8.9398e-03   6.2226e-03  -5.1569e-03   4.8076e-04   5.4625e-05 
708   7.2999e-03   9.2813e-03   6.3761e-03  -5.3772e-03   6.5331e-04  -1.6407e-04 
709   7.2681e-03   9.1666e-03   6.3652e-03  -5.3333e-03   6.3315e-04  -1.7022e-04 
710   7.1932e-03   9.2034e-03   6.2429e-03  -5.3346e-03   6.0278e-04  -1.2819e-04 
711   7.1591e-03   9.2050e-03   6.2600e-03  -5.3091e-03   5.9175e-04  -1.4318e-04 
712   7.1167e-03   9.1659e-03   6.2198e-03  -5.2662e-03   5.6659e-04  -1.3457e-04 
713   7.0264e-03   9.1361e-03   6.2394e-03  -5.2275e-03   5.5790e-04  -1.5124e-04 
714   6.9775e-03   9.0642e-03   6.1970e-03  -5.1900e-03   5.5373e-04  -1.4996e-04 
715   6.9161e-03   8.9862e-03   6.1559e-03  -5.1464e-03   5.4545e-04  -1.4538e-04 
716   6.9675e-03   8.9138e-03   6.1744e-03  -5.1617e-03   5.9513e-04  -1.6495e-04 
717   7.0506e-03   8.9794e-03   6.2457e-03  -5.1766e-03   6.2079e-04  -1.5146e-04 
718   7.0090e-03   9.0940e-03   6.2305e-03  -5.1581e-03   5.7346e-04  -1.1779e-04 
719   7.0109e-03   9.0635e-03   6.2247e-03  -5.1424e-03   5.7962e-04  -1.2947e-04 
720   7.1218e-03   9.1020e-03   6.3530e-03  -5.2515e-03   5.6862e-04  -1.4674e-04 
721   7.0440e-03   8.9853e-03   6.3260e-03  -5.1674e-03   5.8209e-04  -1.4381e-04 
722   7.0216e-03   8.9875e-03   6.2948e-03  -5.1570e-03   5.4999e-04  -1.2393e-04 
723   6.8924e-03   8.8508e-03   6.1664e-03  -5.0856e-03   5.2260e-04  -1.1791e-04 
724   6.7275e-03   8.6257e-03   6.0656e-03  -4.9771e-03   5.5381e-04  -1.5100e-04 
725   6.8590e-03   8.9009e-03   6.2257e-03  -5.1001e-03   5.2517e-04  -1.4741e-04 
726   7.4690e-03   9.5376e-03   6.7382e-03  -5.3367e-03   5.0316e-04  -2.4384e-04 
727   7.0095e-03   8.9967e-03   6.4035e-03  -5.1316e-03   4.9178e-04  -3.1644e-04 
728   7.1748e-03   9.4148e-03   6.4493e-03  -5.2568e-03   4.2724e-04  -1.7957e-04 
729   7.1030e-03   8.7977e-03   6.0468e-03  -5.1188e-03   4.6723e-04  -2.5894e-04 
730   7.0854e-03   8.8893e-03   6.1461e-03  -5.1237e-03   4.7436e-04  -2.1377e-04 
731   7.1213e-03   8.8669e-03   6.1849e-03  -5.1298e-03   5.5345e-04  -2.5947e-04 
732   7.3105e-03   9.0158e-03   6.2746e-03  -5.1676e-03   6.4428e-04  -2.5092e-04 
733   7.2258e-03   8.8745e-03   6.1946e-03  -5.1198e-03   6.7803e-04  -3.0990e-04 
734   7.3267e-03   8.8954e-03   6.2582e-03  -5.1594e-03   8.0070e-04  -3.6098e-04 
735   7.3986e-03   9.0364e-03   6.3961e-03  -5.1904e-03   8.2805e-04  -3.1509e-04 
736   7.4538e-03   9.0574e-03   6.4327e-03  -5.1992e-03   8.3643e-04  -3.2120e-04 
737   7.7817e-03   8.9602e-03   6.4512e-03  -5.4011e-03   9.8695e-04  -4.2105e-04 
738   8.8228e-03   9.8724e-03   7.2053e-03  -5.8567e-03   1.0080e-03  -5.2094e-04 
739   8.4460e-03   9.6483e-03   7.1170e-03  -5.8672e-03   1.0632e-03  -4.7412e-04 
740   8.8737e-03   9.9096e-03   7.3340e-03  -5.9431e-03   1.1284e-03  -5.9996e-04 
741   9.0681e-03   1.0109e-02   7.6551e-03  -6.0366e-03   1.1738e-03  -6.0056e-04 
742   8.9829e-03   9.8492e-03   7.4729e-03  -5.9387e-03   1.1599e-03  -6.6297e-04 
743   8.8795e-03   9.3186e-03   7.2101e-03  -5.7972e-03   1.1784e-03  -7.2641e-04 
744   8.4434e-03   8.8275e-03   6.6637e-03  -5.5305e-03   1.2033e-03  -7.7642e-04 
745   8.1805e-03   8.5388e-03   6.4478e-03  -5.4240e-03   1.1863e-03  -7.9507e-04 
746   8.3481e-03   8.6948e-03   6.6220e-03  -5.4909e-03   1.2324e-03  -8.1744e-04 
747   8.5998e-03   8.8092e-03   6.7360e-03  -5.5757e-03   1.2097e-03  -7.6089e-04 
748   9.6850e-03   9.6411e-03   7.0048e-03  -6.1948e-03   1.1737e-03  -6.6190e-04 
749   9.3046e-03   9.4749e-03   7.0760e-03  -5.9376e-03   1.1229e-03  -6.3950e-04 
750   9.1226e-03   9.2963e-03   6.9173e-03  -5.8420e-03   1.2154e-03  -7.6966e-04 
751   9.5874e-03   9.8787e-03   7.1249e-03  -5.8937e-03   1.0890e-03  -6.3505e-04 
752   9.5837e-03   9.5356e-03   7.4694e-03  -5.9721e-03   1.2365e-03  -8.2186e-04 
753   9.7441e-03   9.9072e-03   7.6153e-03  -6.1232e-03   1.3252e-03  -9.9545e-04 
754   9.9671e-03   9.9128e-03   7.7479e-03  -6.1802e-03   1.3120e-03  -1.0704e-03 
755   9.8015e-03   9.8367e-03   7.4579e-03  -6.1716e-03   1.3336e-03  -1.0001e-03 
756   9.9846e-03   9.5473e-03   7.4601e-03  -6.1203e-03   1.4315e-03  -1.1679e-03 
757   1.0066e-02   9.3572e-03   7.5976e-03  -5.9779e-03   1.4310e-03  -1.1211e-03 
758   1.0208e-02   9.3994e-03   7.6981e-03  -6.0467e-03   1.3696e-03  -1.1086e-03 
759   9.9540e-03   9.0737e-03   7.4803e-03  -5.9277e-03   1.3456e-03  -1.0731e-03 
760   9.8655e-03   8.9125e-03   7.4643e-03  -5.8751e-03   1.3211e-03  -1.0451e-03 
761   9.7019e-03   8.6874e-03   7.3667e-03  -5.7976e-03   1.2851e-03  -1.0570e-03 
762   9.0599e-03   7.9289e-03   6.7606e-03  -5.4561e-03   1.1511e-03  -1.1086e-03 
763   7.3698e-03   6.3025e-03   5.4439e-03  -4.5171e-03   1.0325e-03  -9.8937e-04 
764   7.9198e-03   6.6159e-03   5.9207e-03  -4.7312e-03   1.0471e-03  -1.0055e-03 
765   8.0493e-03   6.5497e-03   5.9192e-03  -4.8077e-03   9.7814e-04  -9.8107e-04 
766   7.7863e-03   6.3726e-03   5.7311e-03  -4.7135e-03   9.6152e-04  -9.2268e-04 
767   8.0277e-03   6.5857e-03   6.3100e-03  -5.0161e-03   1.3452e-03  -1.2770e-03 
768   8.5663e-03   7.3572e-03   6.5863e-03  -5.3378e-03   8.5777e-04  -1.1597e-03 
769   8.6510e-03   7.4151e-03   6.7132e-03  -5.4084e-03   1.1808e-03  -1.4038e-03 
770   9.0986e-03   7.9797e-03   7.3498e-03  -5.6845e-03   1.1453e-03  -1.3533e-03 
771   8.9093e-03   7.8728e-03   7.2641e-03  -5.6062e-03   1.1504e-03  -1.3006e-03 
772   9.0850e-03   7.9138e-03   7.1769e-03  -5.6652e-03   1.0491e-03  -1.4058e-03 
773   9.4595e-03   8.6116e-03   7.9805e-03  -5.8036e-03   1.3302e-03  -1.5171e-03 
774   9.2032e-03   8.3334e-03   7.5183e-03  -5.7476e-03   1.2065e-03  -1.4340e-03 
775   9.1784e-03   8.2097e-03   7.6367e-03  -5.6194e-03   1.3464e-03  -1.4271e-03 
776   8.9603e-03   8.0308e-03   7.3282e-03  -5.5323e-03   1.3089e-03  -1.3876e-03 
777   8.7657e-03   7.8557e-03   7.1991e-03  -5.4376e-03   1.2968e-03  -1.3680e-03 
778   8.4112e-03   7.5248e-03   6.7993e-03  -5.2699e-03   1.2697e-03  -1.3137e-03 
779   8.0746e-03   7.2329e-03   6.4860e-03  -5.1052e-03   1.2194e-03  -1.2649e-03 
780   8.1110e-03   7.1896e-03   6.4139e-03  -5.1102e-03   1.2732e-03  -1.2800e-03 
781   7.6760e-03   6.9052e-03   6.0225e-03  -4.8935e-03   1.2191e-03  -1.2393e-03 
782   7.5765e-03   6.7702e-03   5.8163e-03  -4.8334e-03   1.2786e-03  -1.2609e-03 
783   7.5339e-03   6.8068e-03   5.9577e-03  -4.8118e-03   1.1996e-03  -1.2583e-03 
784   6.9825e-03   6.3519e-03   5.2223e-03  -4.5463e-03   1.2090e-03  -1.2079e-03 
785   7.6853e-03   6.9400e-03   5.8741e-03  -4.9495e-03   1.4421e-03  -1.4774e-03 
786   7.2177e-03   6.5449e-03   5.3027e-03  -4.6655e-03   1.2005e-03  -1.2057e-03 
787   7.1660e-03   6.5224e-03   5.2866e-03  -4.6172e-03   1.2686e-03  -1.2619e-03 
788   7.2466e-03   6.5518e-03   5.3402e-03  -4.7330e-03   1.2528e-03  -1.3108e-03 
789   7.4206e-03   6.6640e-03   5.5141e-03  -4.7526e-03   1.3248e-03  -1.3278e-03 
790   7.1865e-03   6.3783e-03   5.2698e-03  -4.6748e-03   1.0589e-03  -1.1071e-03 
791   7.6189e-03   6.6249e-03   5.7828e-03  -4.8426e-03   1.2490e-03  -1.2180e-03 
792   8.5069e-03   7.1122e-03   6.7925e-03  -5.3349e-03   1.2969e-03  -1.1757e-03 
793   8.2268e-03   7.0451e-03   6.7544e-03  -5.3801e-03   1.3053e-03  -1.2199e-03 
794   8.5922e-03   7.4456e-03   6.9300e-03  -5.5457e-03   1.4330e-03  -1.2836e-03 
795   8.5887e-03   7.4088e-03   6.8370e-03  -5.5185e-03   1.4630e-03  -1.2192e-03 
796   8.8032e-03   7.5694e-03   6.9772e-03  -5.6164e-03   1.5343e-03  -1.2529e-03 
797   8.7117e-03   7.3641e-03   6.4981e-03  -5.5026e-03   1.6213e-03  -1.1958e-03 
798   8.8689e-03   7.4881e-03   6.8458e-03  -5.6040e-03   1.5595e-03  -1.2227e-03 
799   8.8303e-03   7.5029e-03   6.8003e-03  -5.6334e-03   1.5587e-03  -1.1818e-03 
800   8.7262e-03   7.4670e-03   6.7212e-03  -5.6487e-03   1.5470e-03  -1.1840e-03 
801   1.0547e-02   8.7996e-03   8.1684e-03  -6.7273e-03   1.5373e-03  -1.5117e-03 
802   9.4183e-03   7.9970e-03   7.1267e-03  -6.1735e-03   1.4625e-03  -1.2963e-03 
803   9.6277e-03   8.4076e-03   7.3883e-03  -6.2229e-03   1.4679e-03  -1.3923e-03 
804   9.3725e-03   8.2617e-03   7.2050e-03  -6.1251e-03   1.4315e-03  -1.3212e-03 
805   9.3710e-03   8.2662e-03   7.2264e-03  -6.1192e-03   1.4296e-03  -1.3129e-03 
806   1.0097e-02   8.9359e-03   7.9028e-03  -6.3917e-03   1.5167e-03  -1.4137e-03 
807   1.0621e-02   9.3907e-03   8.9311e-03  -6.8652e-03   1.3418e-03  -1.4542e-03 
808   9.6725e-03   8.5064e-03   7.5081e-03  -6.2026e-03   1.4553e-03  -1.4150e-03 
809   9.7973e-03   8.8026e-03   7.7350e-03  -6.2479e-03   1.4643e-03  -1.3987e-03 
810   9.7001e-03   8.7055e-03   7.7058e-03  -6.2020e-03   1.4672e-03  -1.4155e-03 
811   9.6373e-03   8.6662e-03   7.7164e-03  -6.1473e-03   1.4523e-03  -1.3909e-03 
812   9.7114e-03   8.7582e-03   7.7209e-03  -6.1688e-03   1.3176e-03  -1.3300e-03 
813   7.7050e-03   6.6933e-03   5.4985e-03  -5.1961e-03   1.0484e-03  -9.7758e-04 
814   8.0571e-03   7.3223e-03   6.5184e-03  -5.5381e-03   1.2619e-03  -1.3681e-03 
815   7.4533e-03   6.5296e-03   6.0568e-03  -5.0168e-03   9.2001e-04  -1.0543e-03 
816   7.5306e-03   6.5841e-03   6.0246e-03  -5.1561e-03   1.1419e-03  -1.1714e-03 
817   6.4680e-03   5.9154e-03   5.1731e-03  -4.5228e-03   8.2721e-04  -9.6855e-04 
818   6.3113e-03   5.8238e-03   4.9556e-03  -4.4174e-03   8.4023e-04  -9.5418e-04 
819   6.4036e-03   5.8921e-03   5.0276e-03  -4.4704e-03   8.4660e-04  -9.5688e-04 
820   6.2637e-03   5.7814e-03   4.9021e-03  -4.3918e-03   8.2519e-04  -9.3025e-04 
821   6.2775e-03   5.9216e-03   5.0582e-03  -4.4293e-03   8.1293e-04  -1.0898e-03 
822   6.2349e-03   5.8564e-03   4.9656e-03  -4.3832e-03   8.1215e-04  -1.0028e-03 
823   6.3187e-03   5.9854e-03   5.0647e-03  -4.4507e-03   6.8581e-04  -9.3959e-04 
824   6.3241e-03   5.8438e-03   5.0348e-03  -4.4124e-03   7.1216e-04  -9.6458e-04 
825   6.3303e-03   5.8982e-03   5.0456e-03  -4.4161e-03   7.2838e-04  -9.6637e-04 
826   6.3176e-03   5.8950e-03   4.9842e-03  -4.4157e-03   7.3902e-04  -9.3159e-04 
827   6.2524e-03   5.9090e-03   5.0364e-03  -4.4034e-03   7.1473e-04  -9.1945e-04 
828   6.0696e-03   5.7546e-03   4.8885e-03  -4.3433e-03   6.5125e-04  -8.0238e-04 
829   5.9690e-03   5.6848e-03   4.6754e-03  -4.2321e-03   6.7663e-04  -7.4850e-04 
830   6.1887e-03   5.9127e-03   5.0264e-03  -4.3680e-03   6.1688e-04  -7.9673e-04 
831   6.1829e-03   5.9532e-03   4.8998e-03  -4.3937e-03   5.9119e-04  -7.5014e-04 
832   6.8785e-03   6.7383e-03   5.4619e-03  -4.7827e-03   8.4452e-04  -9.7554e-04 
833   6.0135e-03   5.8629e-03   4.7345e-03  -4.2930e-03   6.6036e-04  -7.4361e-04 
834   5.8633e-03   5.7071e-03   4.5611e-03  -4.2306e-03   6.3244e-04  -6.7140e-04 
835   5.5858e-03   5.7076e-03   4.5323e-03  -4.2424e-03   5.9160e-04  -6.1233e-04 
836   5.4430e-03   5.2453e-03   4.3979e-03  -3.8969e-03   7.4687e-04  -7.2841e-04 
837   5.5827e-03   5.3283e-03   4.5905e-03  -4.0980e-03   6.7030e-04  -6.1503e-04 
838   5.5353e-03   5.2520e-03   4.4081e-03  -4.0838e-03   6.1803e-04  -6.5524e-04 
839   5.3420e-03   5.1649e-03   4.2697e-03  -4.0721e-03   6.1631e-04  -6.9790e-04 
840   5.4624e-03   5.3227e-03   4.4852e-03  -4.1287e-03   6.4642e-04  -6.3511e-04 
841   5.3688e-03   5.1671e-03   4.2492e-03  -4.0404e-03   5.9188e-04  -7.0371e-04 
842   5.3842e-03   5.0812e-03   4.1797e-03  -4.0389e-03   5.9622e-04  -6.9657e-04 
843   5.2376e-03   5.0196e-03   4.0864e-03  -3.9343e-03   5.9435e-04  -6.9924e-04 
844   5.5130e-03   5.4630e-03   4.4679e-03  -4.0702e-03   6.5381e-04  -7.9944e-04 
845   5.3458e-03   5.3088e-03   4.2054e-03  -4.0039e-03   5.9541e-04  -7.2118e-04 
846   5.3273e-03   5.2631e-03   4.1671e-03  -3.9938e-03   6.0007e-04  -7.3554e-04 
847   5.2419e-03   5.2714e-03   4.2038e-03  -3.9699e-03   5.9743e-04  -7.0875e-04 
848   5.2169e-03   5.1511e-03   4.0473e-03  -3.9618e-03   5.8459e-04  -7.1175e-04 
849   5.2976e-03   5.2158e-03   4.0874e-03  -4.0847e-03   6.2529e-04  -6.9145e-04 
850   5.2630e-03   5.1290e-03   3.8880e-03  -4.0674e-03   5.4799e-04  -6.3207e-04 
851   5.1742e-03   5.0132e-03   3.7953e-03  -4.0560e-03   5.2758e-04  -5.9100e-04 
852   5.1714e-03   5.0251e-03   3.7909e-03  -4.0679e-03   5.2376e-04  -6.1073e-04 
853   5.0990e-03   5.0399e-03   3.7705e-03  -4.0586e-03   4.7290e-04  -6.2670e-04 
854   5.0779e-03   4.9834e-03   3.7489e-03  -4.0488e-03   4.7645e-04  -6.2828e-04 
855   5.2096e-03   5.4242e-03   4.0130e-03  -4.2262e-03   4.4489e-04  -7.1173e-04 
856   5.1764e-03   5.3300e-03   3.9839e-03  -4.1910e-03   4.1818e-04  -6.9423e-04 
857   5.3524e-03   5.4130e-03   4.1050e-03  -4.2711e-03   4.9577e-04  -7.3173e-04 
858   5.2555e-03   5.3643e-03   4.0304e-03  -4.2273e-03   4.5696e-04  -7.2025e-04 
859   5.2542e-03   5.3118e-03   4.0003e-03  -4.2225e-03   4.6499e-04  -7.2187e-04 
860   5.2912e-03   5.3343e-03   4.0285e-03  -4.2308e-03   5.2191e-04  -7.9842e-04 
861   5.2368e-03   5.3201e-03   4.0110e-03  -4.2162e-03   5.0919e-04  -7.7399e-04 
862   5.2464e-03   5.3150e-03   4.0980e-03  -4.2121e-03   5.1872e-04  -7.3923e-04 
863   5.0252e-03   5.0924e-03   3.6017e-03  -4.1538e-03   4.3941e-04  -8.0124e-04 
864   5.2050e-03   5.0593e-03   3.7641e-03  -4.2488e-03   4.2967e-04  -7.1393e-04 
865   4.7709e-03   4.5087e-03   3.0549e-03  -3.9427e-03   2.4788e-04  -6.0461e-04 
866   4.6691e-03   4.3938e-03   2.9882e-03  -3.8677e-03   2.0910e-04  -5.6223e-04 
867   4.8034e-03   4.6361e-03   3.2024e-03  -3.9707e-03   2.0440e-04  -5.7852e-04 
868   4.9124e-03   4.6341e-03   3.3289e-03  -4.0187e-03   2.0732e-04  -5.6364e-04 
869   4.8271e-03   4.6555e-03   3.3627e-03  -4.0012e-03   2.4096e-04  -6.2977e-04 
870   5.1075e-03   4.9769e-03   3.5822e-03  -4.1742e-03   2.2774e-04  -6.4059e-04 
871   5.1517e-03   5.0213e-03   3.5552e-03  -4.1952e-03   2.2203e-04  -6.8096e-04 
872   5.0520e-03   4.9397e-03   3.4919e-03  -4.1468e-03   2.0488e-04  -6.6414e-04 
873   5.0300e-03   4.9312e-03   3.4869e-03  -4.1281e-03   2.0834e-04  -6.6804e-04 
874   4.9921e-03   4.7579e-03   3.3898e-03  -4.1069e-03   2.8473e-04  -7.3625e-04 
875   5.1409e-03   4.8886e-03   3.5642e-03  -4.2040e-03   3.2746e-04  -7.7549e-04 
876   5.3925e-03   5.1041e-03   3.7143e-03  -4.3344e-03   3.2487e-04  -7.8533e-04 
877   5.4536e-03   5.1743e-03   3.7068e-03  -4.4002e-03   3.3967e-04  -7.7194e-04 
878   5.4214e-03   5.1703e-03   3.6906e-03  -4.3980e-03   3.1879e-04  -7.7780e-04 
879   5.4777e-03   5.2345e-03   3.7561e-03  -4.4386e-03   3.0519e-04  -7.6436e-04 
880   5.4699e-03   5.0815e-03   3.7905e-03  -4.5085e-03   3.2730e-04  -7.6283e-04 
881   5.5721e-03   5.2672e-03   3.9013e-03  -4.5459e-03   3.0904e-04  -7.6841e-04 
882   5.6208e-03   5.2748e-03   3.9601e-03  -4.5670e-03   3.0567e-04  -7.6769e-04 
883   5.6687e-03   5.2979e-03   4.0105e-03  -4.6013e-03   2.9421e-04  -7.7639e-04 
884   5.6985e-03   5.4081e-03   4.0262e-03  -4.6052e-03   2.6153e-04  -7.8720e-04 
885   5.8337e-03   5.6170e-03   4.2444e-03  -4.8131e-03   3.6181e-04  -8.0298e-04 
886   6.3857e-03   5.9594e-03   4.4441e-03  -5.1146e-03   5.8663e-04  -1.0981e-03 
887   6.0934e-03   5.6921e-03   4.1602e-03  -4.9629e-03   4.6265e-04  -1.0345e-03 
888   6.1576e-03   5.8372e-03   4.2442e-03  -5.0463e-03   4.9124e-04  -1.0911e-03 
889   6.2200e-03   5.9210e-03   4.2943e-03  -5.0347e-03   4.5022e-04  -1.0680e-03 
890   6.1884e-03   5.8836e-03   4.2599e-03  -5.0100e-03   4.3585e-04  -1.0580e-03 
891   6.6158e-03   6.2913e-03   4.6326e-03  -5.3359e-03   3.9863e-04  -1.0618e-03 
892   6.5010e-03   6.1389e-03   4.5046e-03  -5.3980e-03   3.3312e-04  -1.0061e-03 
893   6.3869e-03   6.0381e-03   4.4378e-03  -5.3209e-03   3.8011e-04  -1.0459e-03 
894   7.2110e-03   6.7314e-03   5.0379e-03  -5.6864e-03   3.7285e-04  -1.1557e-03 
895   7.1526e-03   6.7284e-03   5.0089e-03  -5.6959e-03   3.8788e-04  -1.2163e-03 
896   6.9376e-03   6.5920e-03   4.8716e-03  -5.5781e-03   3.8111e-04  -1.2004e-03 
897   6.9590e-03   6.5772e-03   4.9540e-03  -5.5044e-03   4.2792e-04  -1.2269e-03 
898   6.9474e-03   6.6531e-03   5.2307e-03  -5.5862e-03   5.1597e-04  -1.2880e-03 
899   7.4475e-03   6.8115e-03   5.4049e-03  -6.0011e-03   4.7475e-04  -1.2303e-03 
900   7.8161e-03   7.3191e-03   5.9583e-03  -6.1873e-03   5.0467e-04  -1.3517e-03 
901   8.0890e-03   7.5842e-03   5.9974e-03  -6.3465e-03   4.7085e-04  -1.3773e-03 
902   8.1646e-03   7.6148e-03   6.0457e-03  -6.3986e-03   4.9381e-04  -1.2997e-03 
903   8.7014e-03   8.3193e-03   6.8316e-03  -6.6925e-03   5.6436e-04  -1.5681e-03 
904   8.6991e-03   8.3990e-03   6.8371e-03  -6.7042e-03   5.3600e-04  -1.4348e-03 
905   8.5615e-03   8.2592e-03   6.7212e-03  -6.6004e-03   5.0722e-04  -1.3875e-03 
906   8.8286e-03   8.9118e-03   7.0827e-03  -6.7568e-03   6.1812e-04  -1.4871e-03 
907   8.6177e-03   8.0854e-03   6.2300e-03  -6.6778e-03   3.5946e-04  -1.3147e-03 
908   9.0210e-03   8.5668e-03   6.6855e-03  -6.7358e-03   2.2131e-04  -1.6554e-03 
909   9.1003e-03   8.8497e-03   6.6309e-03  -6.8188e-03   3.2770e-04  -1.9484e-03 
910   9.0615e-03   8.5541e-03   6.3351e-03  -6.6557e-03   1.7495e-04  -1.6893e-03 
911   9.8765e-03   9.4527e-03   7.6600e-03  -6.9972e-03   5.3426e-05  -1.8513e-03 
912   1.0346e-02   1.0227e-02   8.3432e-03  -7.3565e-03   1.3188e-04  -2.3432e-03 
913   9.8690e-03   9.4887e-03   7.8992e-03  -7.0492e-03   2.3940e-04  -1.8532e-03 
914   9.8019e-03   9.3206e-03   7.2363e-03  -6.9591e-03  -9.2460e-05  -1.7120e-03 
915   9.5442e-03   9.2059e-03   7.5469e-03  -6.7973e-03   3.9628e-04  -1.9616e-03 
916   1.0012e-02   9.5955e-03   7.7018e-03  -6.9445e-03   7.2485e-07  -1.5903e-03 
917   9.6794e-03   9.1615e-03   7.2236e-03  -6.8756e-03   1.7229e-04  -1.8294e-03 
918   9.3973e-03   9.1852e-03   7.4793e-03  -6.7592e-03   2.2439e-04  -1.7184e-03 
919   8.7148e-03   8.4403e-03   6.4057e-03  -6.3651e-03  -2.2776e-05  -1.2891e-03 
920   8.9922e-03   8.8306e-03   6.7034e-03  -6.2925e-03  -2.5037e-04  -1.3144e-03 
921   8.9772e-03   8.6983e-03   6.5892e-03  -6.2414e-03  -4.5522e-04  -1.1251e-03 
922   7.9245e-03   8.1793e-03   5.8487e-03  -6.1902e-03  -7.9007e-05  -6.5510e-04 
923   6.4400e-03   6.7624e-03   4.7851e-03  -5.3680e-03   2.9588e-05  -5.7066e-04 
924   6.0930e-03   6.4594e-03   4.1604e-03  -5.1914e-03  -6.7451e-06  -3.5374e-04 
925   5.8456e-03   6.1962e-03   4.1859e-03  -5.0071e-03   3.8783e-05  -2.5647e-04 
926   5.9161e-03   6.1360e-03   4.1742e-03  -5.0283e-03  -7.8464e-05  -1.0631e-04 
927   5.9634e-03   6.1683e-03   4.1785e-03  -5.0028e-03  -2.1838e-05  -1.3511e-04 
928   6.6085e-03   6.2544e-03   4.5386e-03  -5.1877e-03  -1.7614e-05  -5.8117e-05 
929   6.6471e-03   6.5768e-03   4.5980e-03  -5.2708e-03   9.8744e-05  -1.3876e-05 
930   6.2122e-03   5.9755e-03   4.3412e-03  -4.9937e-03   1.5504e-05  -2.9769e-05 
931   6.1698e-03   5.9441e-03   4.3432e-03  -4.9139e-03  -2.1513e-05   1.4960e-05 
932   6.2042e-03   5.9713e-03   4.3543e-03  -4.9000e-03  -4.6872e-05   1.0389e-04 
933   6.1944e-03   6.0175e-03   4.3883e-03  -4.9079e-03  -1.1573e-04   1.6077e-04 
934   6.8918e-03   7.0773e-03   5.0194e-03  -5.4898e-03  -1.3347e-04  -3.9201e-05 
935   6.7934e-03   6.9002e-03   4.9060e-03  -5.4173e-03  -1.6908e-04   1.1554e-05 
936   6.8175e-03   6.9682e-03   5.0497e-03  -5.4545e-03  -2.1954e-04   8.2307e-05 
937   6.9817e-03   7.7076e-03   5.3658e-03  -5.7139e-03  -3.7931e-04   2.7606e-04 
938   6.9212e-03   7.3232e-03   5.2505e-03  -5.5935e-03  -3.8961e-04   1.6525e-04 
939   7.4413e-03   7.8227e-03   5.8623e-03  -5.8903e-03  -3.8770e-04   2.6494e-04 
940   7.4364e-03   7.9757e-03   5.8605e-03  -5.9102e-03  -3.9209e-04   2.8272e-04 
941   7.4854e-03   8.0796e-03   5.9274e-03  -5.9486e-03  -3.8597e-04   2.6069e-04 
[...]
2777   4.2910e-03   4.2559e-03   3.2992e-03  -3.8385e-03  -1.5183e-05  -1.0098e-04 
2778   4.3410e-03   4.3852e-03   3.3288e-03  -3.8786e-03  -1.3514e-05  -9.8515e-05 
2779   4.4395e-03   5.1178e-03   3.0314e-03  -4.1826e-03  -1.6759e-04   1.3715e-04 
2780   4.5185e-03   4.9685e-03   3.3967e-03  -4.0727e-03  -8.0276e-05   3.7403e-05 
2781   4.6286e-03   5.0688e-03   3.4385e-03  -4.1156e-03  -9.5748e-05   4.3353e-05 
2782   4.6494e-03   5.1405e-03   3.3952e-03  -4.1383e-03  -9.6809e-05   2.4278e-05 
2783   4.6939e-03   5.1604e-03   3.4212e-03  -4.1323e-03  -9.0393e-05   1.1215e-05 
2784   4.7126e-03   5.2005e-03   3.4420e-03  -4.1075e-03  -7.7234e-05  -1.5298e-05 
2785   4.7261e-03   5.2440e-03   3.4784e-03  -4.1187e-03  -8.1046e-05  -1.8480e-05 
2786   4.7946e-03   5.2959e-03   3.5661e-03  -4.1340e-03  -1.1401e-04   9.8242e-07 
2787   4.7692e-03   5.3088e-03   3.6941e-03  -4.1575e-03  -7.0101e-05  -3.9401e-05 
2788   5.1057e-03   5.8683e-03   4.1032e-03  -4.3805e-03  -5.2285e-05  -5.2277e-05 
2789   5.1533e-03   5.9866e-03   4.3220e-03  -4.4421e-03  -1.1535e-04  -3.2346e-05 
2790   5.5420e-03   6.3278e-03   4.6924e-03  -4.5694e-03  -2.0328e-05  -1.5790e-04 
2791   5.4405e-03   6.4245e-03   4.8504e-03  -4.6357e-03  -5.3260e-05  -1.6821e-04 
2792   5.5496e-03   6.8059e-03   5.0793e-03  -4.7891e-03  -4.5824e-05  -2.0353e-04 
2793   5.7751e-03   6.9252e-03   5.2320e-03  -4.8624e-03  -9.1221e-05  -1.7375e-04 
2794   5.9129e-03   7.1235e-03   5.3438e-03  -4.8865e-03  -9.1033e-05  -1.5290e-04 
2795   6.1287e-03   7.3262e-03   5.3547e-03  -5.0245e-03  -6.5703e-05  -9.6115e-05 
2796   6.3472e-03   7.6816e-03   5.5860e-03  -5.1668e-03  -9.4874e-05  -7.3030e-05 
2797   6.4596e-03   7.8849e-03   5.7018e-03  -5.2662e-03   1.7112e-05  -2.6925e-06 
2798   6.4733e-03   7.8811e-03   5.7496e-03  -5.2054e-03  -6.1615e-05  -2.3555e-05 
2799   6.4338e-03   7.8803e-03   5.7853e-03  -5.2071e-03  -7.8606e-05  -2.2248e-05 
2800   6.6594e-03   8.2653e-03   6.0584e-03  -5.3939e-03   7.4083e-06  -8.0439e-05 
2801   6.7865e-03   8.4609e-03   6.2316e-03  -5.4577e-03  -4.3493e-06  -9.3027e-05 
2802   6.9305e-03   8.3846e-03   6.3021e-03  -5.4914e-03   7.6656e-05  -7.5627e-05 
2803   7.1123e-03   8.5026e-03   6.5856e-03  -5.6535e-03  -8.1778e-05  -3.3043e-05 
2804   6.8267e-03   8.3039e-03   6.3451e-03  -5.5135e-03  -5.4216e-05  -1.1855e-05 
2805   6.7711e-03   8.2669e-03   6.2743e-03  -5.4691e-03  -6.1201e-05  -1.3639e-05 
2806   6.6483e-03   8.1959e-03   6.1031e-03  -5.3915e-03  -8.7807e-05   2.9440e-05 
2807   6.5198e-03   8.0906e-03   5.9545e-03  -5.3345e-03  -1.2148e-04   4.9833e-05 
2808   7.0522e-03   8.3540e-03   6.1184e-03  -5.5646e-03  -2.0956e-04   5.0397e-05 
2809   6.8818e-03   8.3036e-03   6.1037e-03  -5.5432e-03  -2.2631e-04   6.7084e-05 
2810   6.9146e-03   8.4395e-03   6.1443e-03  -5.5308e-03  -1.9865e-04   7.6466e-05 
2811   7.0448e-03   8.4680e-03   6.1626e-03  -5.5585e-03  -9.3147e-05   7.3959e-05 
2812   6.9636e-03   8.3586e-03   6.0374e-03  -5.5071e-03  -1.2824e-04   1.1788e-04 
2813   6.9322e-03   8.3471e-03   6.0327e-03  -5.4721e-03  -1.3333e-04   1.3902e-04 
2814   6.9708e-03   8.3620e-03   6.0738e-03  -5.4804e-03  -1.5569e-04   1.6038e-04 
2815   7.0600e-03   8.5897e-03   6.0072e-03  -5.5405e-03  -2.3373e-04   1.8004e-04 
2816   7.3892e-03   8.9845e-03   6.7551e-03  -5.8108e-03   5.7478e-05  -2.7125e-04 
2817   7.1309e-03   8.7852e-03   6.2473e-03  -5.6613e-03  -1.1426e-04  -5.2979e-05 
2818   7.4574e-03   8.9515e-03   6.4691e-03  -5.7913e-03  -1.5609e-04   2.2212e-05 
2819   7.1752e-03   8.7805e-03   6.1325e-03  -5.6033e-03  -1.1249e-04   8.3901e-05 
2820   7.1042e-03   8.7422e-03   6.0498e-03  -5.5572e-03  -1.3185e-04   7.0806e-05 
2821   7.0167e-03   8.6595e-03   5.9566e-03  -5.5034e-03  -1.4095e-04   8.5772e-05 
2822   6.7046e-03   8.2416e-03   5.6294e-03  -5.3143e-03  -1.3130e-04   8.2818e-05 
2823   6.7915e-03   8.4330e-03   5.7610e-03  -5.3568e-03  -1.0971e-04   9.5605e-05 
2824   6.7866e-03   8.4768e-03   5.7518e-03  -5.3392e-03  -1.1123e-04   1.2523e-04 
2825   6.5876e-03   9.0936e-03   6.0152e-03  -5.4483e-03  -8.0313e-05   1.7636e-04 
2826   7.6173e-03   1.0139e-02   7.0541e-03  -5.8340e-03  -1.4217e-06  -8.0536e-05 
2827   7.7292e-03   1.0295e-02   7.0839e-03  -5.8719e-03   5.2513e-06  -7.5830e-05 
2828   8.1217e-03   1.0530e-02   6.9376e-03  -5.9874e-03   1.1548e-04   2.0267e-04 
2829   7.9133e-03   1.0426e-02   6.9290e-03  -5.7953e-03   1.0248e-04   5.4033e-05 
2830   8.5264e-03   1.1053e-02   7.3097e-03  -6.0991e-03   8.3363e-05   2.0158e-04 
2831   8.2448e-03   1.0763e-02   7.1620e-03  -5.9453e-03   3.4403e-05   2.4502e-04 
2832   8.3691e-03   1.0863e-02   7.1629e-03  -5.9424e-03   7.8222e-05   2.5635e-04 
2833   7.9987e-03   1.0948e-02   7.0796e-03  -5.9309e-03   1.7371e-04   3.4440e-04 
2834   7.9217e-03   1.0658e-02   6.9752e-03  -5.8567e-03   9.0806e-05   3.1495e-04 
2835   7.9893e-03   1.0855e-02   7.0295e-03  -5.8768e-03   9.2724e-05   1.5024e-04 
2836   8.1483e-03   1.0858e-02   6.8890e-03  -5.9785e-03   8.0604e-05   2.1055e-04 
2837   8.1975e-03   1.0789e-02   6.9491e-03  -5.9703e-03   6.0958e-05   2.1549e-04 
2838   8.2384e-03   1.0254e-02   6.1950e-03  -6.1005e-03  -1.0738e-05   1.0940e-04 
2839   8.9068e-03   1.0870e-02   6.9780e-03  -6.2839e-03  -1.7983e-04   3.1111e-04 
2840   8.5132e-03   1.0580e-02   6.8157e-03  -6.1951e-03  -1.2602e-04   3.5359e-04 
2841   8.4015e-03   1.0607e-02   6.8595e-03  -6.0999e-03  -1.4262e-04   4.0334e-04 
2842   8.3078e-03   1.0462e-02   6.8230e-03  -6.0449e-03  -1.9008e-04   3.6813e-04 
2843   8.4436e-03   1.0729e-02   7.1408e-03  -6.1223e-03  -1.1534e-04   5.5150e-04 
2844   8.4170e-03   1.0951e-02   7.3702e-03  -6.3188e-03  -2.8410e-05   7.0750e-04 
2845   8.3285e-03   1.0581e-02   7.0180e-03  -6.1849e-03  -2.1672e-04   8.4832e-04 
2846   8.4253e-03   1.0576e-02   7.0765e-03  -6.2251e-03  -2.0990e-04   8.0934e-04 
2847   8.3726e-03   1.0459e-02   6.9699e-03  -6.1913e-03  -2.0864e-04   8.0743e-04 
2848   8.2659e-03   1.0798e-02   7.0315e-03  -6.1931e-03  -1.5890e-04   8.2673e-04 
2849   8.1745e-03   1.0577e-02   6.8224e-03  -6.0768e-03  -2.2535e-04   8.5914e-04 
2850   8.1328e-03   1.0441e-02   6.8029e-03  -6.0221e-03  -2.4450e-04   8.5212e-04 
2851   8.1502e-03   1.0516e-02   6.8323e-03  -5.9890e-03  -2.2394e-04   8.2420e-04 
2852   8.0923e-03   1.0487e-02   6.8925e-03  -5.9840e-03  -2.3228e-04   8.8541e-04 
2853   8.0111e-03   1.0241e-02   6.6323e-03  -5.8826e-03  -2.0192e-04   8.9095e-04 
2854   8.1042e-03   1.0275e-02   6.7051e-03  -5.9788e-03  -2.1161e-04   8.9839e-04 
2855   8.1456e-03   1.0359e-02   6.8168e-03  -6.0091e-03  -2.1128e-04   8.9178e-04 
2856   8.6364e-03   1.0760e-02   6.8682e-03  -6.1438e-03  -1.5198e-04   6.9611e-04 
2857   8.4649e-03   1.0667e-02   6.8310e-03  -6.0949e-03  -1.8669e-04   8.1568e-04 
2858   8.3113e-03   1.0472e-02   6.7637e-03  -6.0146e-03  -1.9449e-04   7.9435e-04 
2859   8.7595e-03   1.0947e-02   7.2294e-03  -6.1578e-03  -1.7831e-04   7.6955e-04 
2860   8.5054e-03   1.0710e-02   6.9611e-03  -6.0599e-03  -1.9370e-04   7.3486e-04 
2861   8.6692e-03   1.1133e-02   7.1435e-03  -6.1660e-03  -1.3525e-04   6.4528e-04 
2862   1.0166e-02   1.2387e-02   7.9594e-03  -6.9225e-03  -5.0701e-04   8.5851e-04 
2863   8.9990e-03   1.1255e-02   7.5292e-03  -6.3928e-03  -2.3975e-04   8.3821e-04 
2864   9.1414e-03   1.1137e-02   7.5545e-03  -6.4179e-03  -3.0425e-04   8.5097e-04 
2865   9.0670e-03   1.1040e-02   7.5105e-03  -6.3707e-03  -3.0643e-04   8.2911e-04 
2866   8.8591e-03   1.0833e-02   7.3370e-03  -6.2477e-03  -3.0468e-04   7.9998e-04 
2867   8.8582e-03   1.0780e-02   7.1985e-03  -6.1529e-03  -3.5469e-04   7.2198e-04 
2868   8.5238e-03   1.0547e-02   6.9435e-03  -5.9808e-03  -3.3729e-04   6.8669e-04 
2869   8.6582e-03   1.0615e-02   6.9371e-03  -6.0518e-03  -3.7493e-04   7.1867e-04 
2870   8.4426e-03   1.0657e-02   7.0848e-03  -6.0847e-03  -2.8955e-04   8.0051e-04 
2871   8.3867e-03   1.0530e-02   7.1374e-03  -6.0257e-03  -3.2287e-04   8.1821e-04 
2872   8.3899e-03   1.0456e-02   7.1653e-03  -5.9948e-03  -3.1418e-04   8.1832e-04 
2873   8.2527e-03   1.0299e-02   7.0472e-03  -5.8938e-03  -3.1330e-04   8.0277e-04 
2874   8.4774e-03   1.0617e-02   7.3985e-03  -6.0003e-03  -2.9514e-04   9.4795e-04 
2875   8.1983e-03   1.0403e-02   7.0585e-03  -5.8784e-03  -2.8897e-04   8.2416e-04 
2876   8.7489e-03   1.0797e-02   7.5299e-03  -6.0200e-03  -1.0657e-05   7.3756e-04 
2877   8.6309e-03   1.0314e-02   7.4673e-03  -5.8777e-03  -1.0198e-04   9.1620e-04 
2878   8.0718e-03   1.0052e-02   7.0374e-03  -5.6514e-03  -1.2871e-04   7.5075e-04 
2879   8.3636e-03   1.0360e-02   7.2882e-03  -5.8181e-03  -1.7382e-04   8.1347e-04 
2880   8.2779e-03   1.0212e-02   7.2733e-03  -5.7535e-03  -1.4664e-04   7.5505e-04 
2881   8.1926e-03   1.0040e-02   7.1439e-03  -5.6854e-03  -1.6924e-04   7.3629e-04 
2882   8.0100e-03   9.6682e-03   6.8733e-03  -5.6077e-03  -2.7252e-04   7.4931e-04 
2883   7.8590e-03   9.2040e-03   6.4752e-03  -5.4285e-03  -2.5851e-04   6.8391e-04 
2884   7.7811e-03   9.1431e-03   6.4415e-03  -5.4115e-03  -2.2280e-04   6.5927e-04 
2885   9.0080e-03   1.0049e-02   7.4786e-03  -5.9046e-03  -2.8011e-04   5.8349e-04 
2886   8.3059e-03   9.1480e-03   6.8222e-03  -5.5800e-03  -2.6159e-04   7.5649e-04 
2887   8.6608e-03   9.7439e-03   7.2069e-03  -5.7161e-03  -3.1123e-04   5.9057e-04 
2888   8.3431e-03   9.3521e-03   6.9888e-03  -5.5760e-03  -3.8822e-04   7.3229e-04 
2889   8.2372e-03   9.3497e-03   6.8374e-03  -5.4940e-03  -2.8985e-04   5.9931e-04 
2890   8.0905e-03   8.8536e-03   6.5107e-03  -5.4666e-03  -4.9252e-04   7.0068e-04 
2891   8.2264e-03   1.0801e-02   5.9095e-03  -5.9492e-03  -6.1943e-04   3.7850e-04 
2892   6.6503e-03   8.1678e-03   4.4078e-03  -5.0479e-03  -1.0410e-04   4.6116e-04 
2893   6.9754e-03   8.6691e-03   4.6848e-03  -5.2313e-03  -1.7625e-04   4.7478e-04 
2894   6.9607e-03   8.4498e-03   4.6460e-03  -5.1559e-03  -1.8173e-04   4.5916e-04 
2895   7.1489e-03   8.6102e-03   4.8251e-03  -5.2637e-03  -2.4351e-04   4.7633e-04 
2896   7.7467e-03   8.8140e-03   5.1353e-03  -5.3738e-03  -2.3446e-04   5.5662e-04 
2897   8.1755e-03   8.8960e-03   5.5080e-03  -5.4685e-03  -3.3137e-04   5.6363e-04 
2898   8.2029e-03   8.4617e-03   5.2423e-03  -5.3158e-03  -3.8025e-04   5.2478e-04 
2899   7.6856e-03   8.1393e-03   4.7611e-03  -5.2319e-03  -4.5817e-04   5.7071e-04 
2900   7.9727e-03   8.3663e-03   4.7706e-03  -5.3736e-03  -4.5223e-04   5.8816e-04 
2901   7.8299e-03   8.2385e-03   4.6821e-03  -5.2884e-03  -4.5189e-04   5.8981e-04 
2902   7.8940e-03   8.2812e-03   4.7126e-03  -5.3475e-03  -4.3946e-04   6.0852e-04 
2903   7.9764e-03   8.3096e-03   4.7133e-03  -5.3926e-03  -4.3644e-04   5.8478e-04 
2904   8.0689e-03   8.3555e-03   4.7521e-03  -5.4441e-03  -4.3862e-04   5.8126e-04 
2905   8.0472e-03   8.3719e-03   4.7386e-03  -5.4772e-03  -4.8718e-04   5.7488e-04 
2906   8.1080e-03   8.3213e-03   4.5762e-03  -5.5625e-03  -4.9693e-04   5.5302e-04 
2907   8.3444e-03   8.9003e-03   4.8206e-03  -5.8359e-03  -4.3476e-04   5.1356e-04 
2908   8.3872e-03   8.7918e-03   4.7841e-03  -5.8087e-03  -4.5776e-04   4.9062e-04 
2909   9.0954e-03   8.9986e-03   5.1323e-03  -6.1933e-03  -4.4113e-04   2.6645e-04 
2910   9.0661e-03   9.0383e-03   5.0694e-03  -6.2230e-03  -4.9027e-04   1.8140e-04 
2911   8.9308e-03   9.3967e-03   5.2887e-03  -6.2063e-03  -3.2536e-04   8.7429e-05 
2912   8.9022e-03   9.2010e-03   5.1747e-03  -6.1749e-03  -3.4173e-04   1.0172e-04 
2913   8.6616e-03   7.9690e-03   5.1073e-03  -5.8884e-03  -7.5245e-04   3.7079e-04 
2914   9.0395e-03   8.5876e-03   5.9579e-03  -5.9650e-03  -6.8060e-04   4.0027e-04 
2915   8.7460e-03   8.1144e-03   5.6854e-03  -5.8648e-03  -7.1014e-04   3.4305e-04 
2916   8.6589e-03   7.9972e-03   5.6081e-03  -5.8097e-03  -7.4677e-04   3.2148e-04 
2917   8.5296e-03   8.3525e-03   5.9318e-03  -5.8145e-03  -6.4527e-04   3.2969e-04 
2918   8.2937e-03   8.3752e-03   5.6463e-03  -5.6516e-03  -5.0718e-04   2.9381e-04 
2919   8.1019e-03   8.0317e-03   5.4399e-03  -5.5407e-03  -5.3257e-04   2.5102e-04 
2920   8.3958e-03   8.2576e-03   5.6160e-03  -5.7999e-03  -5.1327e-04   2.7505e-04 
2921   8.3007e-03   8.1230e-03   5.5756e-03  -5.7672e-03  -5.4441e-04   2.9430e-04 
2922   8.2159e-03   8.4245e-03   5.3728e-03  -5.8555e-03  -5.0380e-04   1.8746e-04 
2923   8.0400e-03   8.4007e-03   5.2143e-03  -5.8867e-03  -6.1170e-04   9.2890e-05 
2924   8.3044e-03   8.9562e-03   5.1867e-03  -6.2038e-03  -7.0905e-04   1.0821e-05 
2925   8.0011e-03   8.3170e-03   4.6146e-03  -5.9570e-03  -7.9438e-04   1.0846e-04 
2926   7.8692e-03   8.3028e-03   4.7744e-03  -5.8471e-03  -6.2449e-04  -9.7169e-06 
2927   7.8419e-03   8.4927e-03   4.7167e-03  -5.9178e-03  -6.3890e-04  -4.2874e-06 
2928   8.2555e-03   9.3063e-03   4.9312e-03  -6.2946e-03  -5.3427e-04  -2.5169e-05 
2929   7.8017e-03   8.2750e-03   4.4304e-03  -5.9516e-03  -5.8369e-04  -4.6036e-05 
2930   8.0498e-03   8.6489e-03   4.7927e-03  -6.0418e-03  -5.9743e-04  -1.5947e-04 
2931   7.7446e-03   8.4203e-03   4.3768e-03  -5.9112e-03  -6.3669e-04  -2.3045e-04 
2932   7.5180e-03   8.1288e-03   4.2045e-03  -5.8035e-03  -6.8093e-04  -2.1559e-04 
2933   7.6150e-03   8.2849e-03   4.3686e-03  -6.0165e-03  -6.3879e-04  -4.2515e-05 
2934   7.1666e-03   8.2729e-03   4.0990e-03  -5.7814e-03  -5.1689e-04  -2.6608e-04 
2935   7.7168e-03   8.6174e-03   4.3424e-03  -6.0937e-03  -6.1244e-04  -3.2091e-04 
2936   7.1033e-03   8.2259e-03   3.7921e-03  -5.7971e-03  -5.1985e-04  -4.9205e-04 
2937   7.3447e-03   8.7853e-03   4.3415e-03  -5.9124e-03  -4.1758e-04  -4.9751e-04 
2938   7.6663e-03   9.0324e-03   4.4609e-03  -6.0210e-03  -4.9096e-04  -4.6474e-04 
2939   7.3040e-03   8.5393e-03   4.2076e-03  -5.8078e-03  -4.6434e-04  -3.3333e-04 
2940   7.6661e-03   9.0235e-03   4.6214e-03  -6.0553e-03  -3.6594e-04  -4.1460e-04 
2941   7.7283e-03   8.8963e-03   4.5281e-03  -5.9921e-03  -2.9510e-04  -6.7210e-05 
2942   7.2860e-03   8.5352e-03   4.1009e-03  -5.7697e-03  -3.5198e-04  -1.2435e-04 
2943   7.4715e-03   8.5578e-03   4.2018e-03  -5.8065e-03  -3.2982e-04  -1.7098e-04 
2944   7.7173e-03   8.5985e-03   4.3948e-03  -6.0485e-03  -5.5508e-04  -1.3311e-04 
2945   8.0822e-03   9.8250e-03   5.1854e-03  -6.3490e-03  -4.7433e-04  -7.9078e-05 
2946   8.3279e-03   9.4262e-03   5.1077e-03  -6.3501e-03  -6.3581e-04   7.3848e-06 
2947   8.3414e-03   9.3417e-03   5.0957e-03  -6.3399e-03  -5.9901e-04  -3.0285e-06 
2948   8.1014e-03   9.2121e-03   4.9579e-03  -6.2356e-03  -6.2461e-04   1.2370e-04 
2949   8.2917e-03   8.9255e-03   4.8604e-03  -6.2489e-03  -6.9793e-04   2.9038e-04 
2950   8.4458e-03   9.2605e-03   5.5883e-03  -6.5252e-03  -7.5636e-04   3.1161e-04 
2951   8.0768e-03   8.8785e-03   5.1018e-03  -6.2568e-03  -6.9026e-04   3.4278e-04 
2952   8.6315e-03   9.0758e-03   5.3937e-03  -6.3901e-03  -5.5717e-04   3.9367e-04 
2953   8.7721e-03   9.0841e-03   5.3234e-03  -6.5100e-03  -4.9398e-04   3.3758e-04 
2954   9.0901e-03   9.2308e-03   5.4469e-03  -6.5300e-03  -4.5064e-04   4.0532e-04 
2955   9.1088e-03   9.1651e-03   5.3699e-03  -6.4789e-03  -4.2984e-04   4.2320e-04 
2956   9.3409e-03   9.2138e-03   5.3923e-03  -6.4698e-03  -4.2223e-04   4.8971e-04 
2957   9.4979e-03   9.2079e-03   5.2985e-03  -6.3219e-03  -3.6830e-04   3.7561e-04 
2958   1.0306e-02   1.0309e-02   6.3428e-03  -6.9407e-03  -9.5334e-05   6.1361e-05 
2959   1.0590e-02   1.0257e-02   6.2191e-03  -7.0413e-03  -1.0668e-04   4.9843e-05 
2960   1.0924e-02   1.0486e-02   6.4723e-03  -7.4680e-03   2.8387e-04  -1.8172e-04 
2961   1.0956e-02   1.0543e-02   6.5102e-03  -7.2817e-03   8.9247e-05   1.7147e-05 
2962   1.1214e-02   9.8816e-03   6.2368e-03  -7.1845e-03   1.4359e-04   2.4526e-04 
2963   1.1015e-02   9.5744e-03   6.2491e-03  -7.1805e-03   1.7687e-04   2.6664e-04 
2964   1.0681e-02   9.4115e-03   6.3341e-03  -7.0682e-03   1.6345e-04   2.5790e-04 
2965   1.0754e-02   9.3964e-03   6.4077e-03  -7.1584e-03   2.6266e-04   1.1625e-04 
2966   1.0764e-02   9.4061e-03   6.3204e-03  -7.1059e-03   2.1918e-04   1.9146e-04 
2967   1.1470e-02   9.7662e-03   6.0869e-03  -7.3621e-03   1.9138e-04   4.4401e-05 
2968   1.1482e-02   9.9372e-03   6.2359e-03  -7.5054e-03   4.4216e-04  -8.7797e-05 
2969   1.1608e-02   9.8812e-03   6.4080e-03  -7.4107e-03   4.4631e-04  -1.6083e-05 
2970   1.2285e-02   1.0233e-02   6.8271e-03  -7.6955e-03   5.8963e-04  -8.0295e-05 
2971   1.2885e-02   1.0394e-02   7.7536e-03  -7.9076e-03   7.9269e-04  -1.2359e-04 
2972   1.2624e-02   1.0239e-02   7.6835e-03  -7.7319e-03   8.5265e-04  -1.4327e-04 
2973   1.3000e-02   1.0530e-02   7.8412e-03  -7.9272e-03   1.0070e-03  -1.3118e-04 
2974   1.3322e-02   1.0549e-02   7.8387e-03  -8.0120e-03   8.3495e-04  -2.2356e-04 
2975   1.2765e-02   9.8659e-03   7.6121e-03  -7.6815e-03   8.4964e-04  -5.5893e-05 
2976   1.3398e-02   1.0657e-02   8.0003e-03  -7.8748e-03   8.0094e-04  -1.5583e-04 
2977   1.3502e-02   1.0644e-02   8.0947e-03  -7.7887e-03   7.6476e-04  -7.2463e-05 
2978   1.3176e-02   1.0524e-02   7.9059e-03  -7.6849e-03   8.0465e-04  -5.6934e-05 
2979   1.2932e-02   1.0149e-02   7.7260e-03  -7.5318e-03   7.3533e-04  -1.2465e-04 
2980   1.3109e-02   1.0729e-02   8.0932e-03  -7.7119e-03   8.0993e-04  -2.4280e-05 
2981   1.2429e-02   1.0006e-02   7.7459e-03  -7.3381e-03   6.1916e-04  -2.3639e-04 
2982   1.1342e-02   9.4963e-03   6.9973e-03  -7.0820e-03   4.5165e-04   7.3098e-06 
2983   1.1660e-02   9.7145e-03   7.0624e-03  -7.2148e-03   6.9949e-04  -1.6032e-04 
2984   1.1702e-02   1.0197e-02   7.2976e-03  -7.2130e-03   6.6943e-04  -5.6346e-05 
2985   1.1598e-02   1.0126e-02   7.1840e-03  -7.2202e-03   5.9852e-04  -8.9033e-05 
2986   1.1544e-02   1.0149e-02   7.2362e-03  -7.1582e-03   6.1634e-04  -4.7696e-05 
2987   1.1475e-02   1.0196e-02   7.1180e-03  -7.1128e-03   5.9388e-04  -3.1995e-05 
2988   1.2439e-02   1.0654e-02   7.3600e-03  -7.6510e-03   2.2394e-04   1.0029e-04 
2989   1.2185e-02   1.0320e-02   7.5396e-03  -7.4221e-03   4.5867e-04   3.9772e-05 
2990   1.2492e-02   1.0224e-02   7.6816e-03  -7.3737e-03   4.0643e-04   6.5041e-05 
2991   1.2609e-02   1.0439e-02   7.9335e-03  -7.4306e-03   5.5189e-04   2.0244e-04 
2992   1.2178e-02   1.0194e-02   7.5239e-03  -7.2728e-03   5.1363e-04   6.9839e-05 
2993   1.2496e-02   1.0511e-02   7.6411e-03  -7.5031e-03   4.9513e-04   1.2857e-04 
2994   1.2352e-02   1.0411e-02   7.6628e-03  -7.4569e-03   5.4317e-04   1.0996e-04 
2995   1.2344e-02   1.0295e-02   7.7973e-03  -7.4962e-03   6.0157e-04  -3.8484e-05 
2996   1.2871e-02   1.0657e-02   8.1066e-03  -7.7035e-03   4.7839e-04   6.0635e-05 
2997   1.2931e-02   1.0779e-02   8.2934e-03  -7.8416e-03   4.5821e-04   6.9747e-05 
2998   1.2220e-02   1.0145e-02   7.9807e-03  -7.4133e-03   4.2315e-04  -3.4891e-07 
2999   1.1388e-02   9.3197e-03   7.4166e-03  -7.0806e-03   4.0234e-04  -8.8575e-05 
3000   1.1532e-02   9.0280e-03   7.4263e-03  -7.0723e-03   3.8106e-04  -3.2482e-04 
Loop time of 3821.83 on 1 procs for 30000000 steps with 200 atoms

Performance: 67820.946 tau/day, 7849.647 timesteps/s
99.8% CPU use with 1 MPI tasks x no OpenMP threads

MPI task timing breakdown:
Section |  min time  |  avg time  |  max time  |%varavg| %total
---------------------------------------------------------------
Pair    | 3602.7     | 3602.7     | 3602.7     |   0.0 | 94.27
Neigh   | 0.18686    | 0.18686    | 0.18686    |   0.0 |  0.00
Comm    | 107.89     | 107.89     | 107.89     |   0.0 |  2.82
Output  | 2.7573     | 2.7573     | 2.7573     |   0.0 |  0.07
Modify  | 85.999     | 85.999     | 85.999     |   0.0 |  2.25
Other   |            | 22.27      |            |       |  0.58

Nlocal:    200 ave 200 max 200 min
Histogram: 1 0 0 0 0 0 0 0 0 0
Nghost:    398 ave 398 max 398 min
Histogram: 1 0 0 0 0 0 0 0 0 0
Neighs:    761 ave 761 max 761 min
Histogram: 1 0 0 0 0 0 0 0 0 0
FullNghs:  1198 ave 1198 max 1198 min
Histogram: 1 0 0 0 0 0 0 0 0 0

Total # of neighbors = 1198
Ave neighs/atom = 5.99
Neighbor list builds = 618
Dangerous builds = 0







Total wall time: 1:03:41
