LAMMPS (5 Jun 2019)
# SETTINGS
atom_style	sphere
comm_modify	mode single vel yes
newton off

# READ THE PARTICLE CONFIGURATION
read_data data.file
  triclinic box = (0 0 0) to (14.6381 14.6381 14.6381) with tilt (0 0 0)
  1 by 1 by 1 MPI processor grid
  reading atoms ...
  200 atoms
  reading velocities ...
  200 velocities
  read_data CPU = 0.00138402 secs

# SPECIFY THE PARTICLE-PARTICLE INTERACTION
pair_style hybrid/overlay granular lubricate/bmpoly 0.1 1 1 0.001 0.05 1 0
pair_coeff * * granular hooke 10000 0 tangential linear_history 7000 0 1
pair_coeff * * lubricate/bmpoly

# DO THE STRESS CALC
compute	Temp all temp/profile 1 1 1 y 20
compute		4_2 all pressure Temp

# SPECIFY THE OUTPUTS
thermo_style	custom time c_4_2[1] c_4_2[2] c_4_2[3] c_4_2[4] c_4_2[5] c_4_2[6]
thermo 20000
dump	id all custom 2000 data.dump id x y z radius mass

# SPECIFY THE TIMESTEP, THE INTEGRATION SCHEME AND RUN
timestep	0.0001
fix		1 all nve/sphere
fix 2 all deform 1 xy erate 0.01 remap v
run 20000000
Neighbor list info ...
  update every 1 steps, delay 10 steps, check yes
  max neighbors/atom: 2000, page size: 100000
  master list distance cutoff = 3.1
  ghost atom cutoff = 3.1
  binsize = 1.55, bins = 10 10 10
  2 neighbor lists, perpetual/occasional/extra = 2 0 0
  (1) pair granular, perpetual
      attributes: half, newton off, size, history
      pair build: half/size/bin/newtoff
      stencil: half/bin/3d/newtoff
      bin: standard
  (2) pair lubricate/bmpoly, perpetual
      attributes: full, newton off
      pair build: full/bin/atomonly
      stencil: full/bin/3d
      bin: standard
Per MPI rank memory allocation (min/avg/max) = 11.29 | 11.29 | 11.29 Mbytes
Time c_4_2[1] c_4_2[2] c_4_2[3] c_4_2[4] c_4_2[5] c_4_2[6] 
           0 0.0022486707 0.0089648449  0.022003118 -0.0033677182 -0.0056043609 -0.010453737 
           2 0.00084850827 0.00036409544 0.00018415633 -0.0024167883 0.00027786737 -0.0002514495 
           4  0.001609379  0.001176063 0.00035461058 -0.0030661631 0.00023033724 -9.5896231e-05 
           6 0.0012223796 0.0010879944 0.00051115441 -0.0028177973 0.00011094032 -9.7449383e-05 
           8 0.0016881101  0.001628288 0.00079416068 -0.003146289 0.00010320933 -1.5487426e-05 
          10 0.0018877226 0.0017971736 0.00071508987 -0.0033242194 0.00026111932 -0.00010043145 
          12 0.0026056434 0.0023789212 0.0011044551 -0.0038658033 0.00041130377 -0.00023375024 
          14 0.0027554096 0.0027371331 0.0010546204 -0.0039950236 0.00024991888 -8.408406e-05 
          16 0.0033513762 0.0032069193 0.0014174343 -0.0045127723 0.00048440485 -0.00024874651 
          18 0.0041415695 0.0038526351 0.0017814566 -0.0051305042 0.00067659137 -0.00030422424 
          20 0.0043020467 0.0043492668  0.001576672 -0.0054027613 0.00053537341 -0.00020066866 
          22 0.0048400351 0.0053332176 0.0020280983 -0.0059852782 0.00057913927 -0.0001918212 
          24 0.0059140172 0.0059804918 0.0023119965 -0.0065515638 0.00045794418 -0.00010682605 
          26 0.0072147776 0.0067626061 0.0031122886 -0.0071644647 0.00057633215 -0.00016495899 
          28 0.0081802414 0.0081080059 0.0034924235 -0.0081285195 0.00052332488 -0.00020721302 
          30 0.0094652962 0.0088170097 0.0036955649 -0.0087607668 0.00061785416 -0.000158949 
          32  0.010094717  0.009896791 0.0042499752 -0.0093859637 0.00068774624 -0.00021194409 
          34  0.011783111  0.011545221 0.0057215472 -0.010578273 0.00078140871 0.00011724836 
          36  0.012622636   0.01257087 0.0062270712  -0.01129226 0.0011918113 0.00020055758 
          38   0.01420399  0.013648896 0.0070999457 -0.012077117 0.0014141921 -2.5932487e-05 
          40  0.016520807  0.015952257 0.0090240132 -0.013954503 0.0017865134 -0.00030129185 
          42  0.019027421  0.018073896 0.0099862438 -0.016045835 0.0016794302 0.00013044739 
          44  0.024010591  0.023515794  0.013325507 -0.019853421 0.0021738554 0.0002730612 
          46  0.030378037  0.028089901  0.015133149 -0.023818734  0.002353302 -6.1890785e-06 
          48   0.04342032  0.038549843  0.016688861   -0.0333211 0.0019414296 -0.0010978909 
          50  0.046431952  0.041970187  0.022229321 -0.033990867 0.0013297776 -0.0011252624 
          52  0.055870451  0.059603132  0.031373081 -0.041361486 0.00011643486 0.0021736118 
          54  0.076079918  0.074588535  0.047078626 -0.052080771 -0.0041800224 0.0034680573 
          56  0.080202297  0.077189722  0.050988841 -0.052952294 -0.0032132822 0.0038909748 
          58  0.086258754  0.087796836  0.059251368 -0.057483896 -0.0025751429 0.0047867573 
          60  0.082330847  0.080405646  0.051179627 -0.057796437 -6.4266201e-05 0.0051730929 
          62  0.081820975  0.083223003  0.057132542 -0.056507581 0.0030528139 0.0063431116 
          64  0.083853307  0.087155427   0.06668024 -0.061633017 0.0090191479 -0.0022591598 
          66  0.069857182   0.07234882  0.056012712 -0.050022159 0.0079650917 -0.00081609945 
          68   0.08118094   0.11241642  0.069039174 -0.067836354 0.0096055213 -0.0081257289 
          70  0.057165983  0.075534715  0.039396989 -0.048197611 0.0036562339 -0.0028308905 
          72  0.059940274  0.066001419  0.034290585 -0.047149497 0.00096582762 -0.0031231844 
          74  0.070999688  0.073617064  0.043944464 -0.053685636 0.0036937396 -0.0014795522 
          76  0.084164443  0.077189034  0.055789493 -0.058679163 0.0049925879 -0.0053265399 
          78  0.071847139  0.059374571  0.045159488 -0.048192077 0.0043431139 -0.0057865479 
          80  0.069726416  0.061631845  0.040533296  -0.04984993 0.0065948073 -0.0089832232 
          82  0.056001019  0.053482462  0.041279932 -0.043019046 0.0079652738 -0.0085164064 
          84  0.043618674  0.048783859  0.039204031 -0.038749557 0.0027272731 -0.0051903964 
          86    0.0363973  0.042876868  0.027921176 -0.036468541 0.0049116922 -0.001565436 
          88  0.028671696  0.029210869  0.019041187 -0.030274634 0.0042265906 0.0012654423 
          90  0.039412167  0.041015081  0.023625697 -0.037510095 7.6465004e-05 0.0046346904 
          92  0.047974082  0.052718018  0.029331188    -0.044054 -0.0031231256 0.0020890955 
          94  0.048281143  0.053829827  0.025820806 -0.044636339 -0.0045445409 0.0049385304 
          96  0.041528924  0.042803089  0.024908746 -0.038287344 -0.0035983851 0.0026627353 
          98  0.055073292  0.057714483  0.041022007 -0.048000697 -0.010063318 0.0090950493 
         100  0.085303944  0.073796783  0.057409017 -0.062099453 -0.0071963242 0.0096764074 
         102   0.10292978  0.090571288  0.065645821 -0.068964947 -0.011135931 0.0072627859 
         104   0.11035187     0.108792  0.068801574 -0.074826224  -0.00614315 0.0020188711 
         106   0.11766665   0.12022606  0.084076482 -0.074324532 -0.0059531928 -0.001555477 
         108   0.11153914   0.11974296  0.084277945 -0.072213516 -0.007032966 -0.00088887407 
         110   0.12960926    0.1318868   0.11111573 -0.077182207 -0.0089435192 0.0010579526 
         112   0.13110613   0.13183656   0.12855884 -0.082310736 -0.012028618  0.005671427 
         114   0.10066068   0.11597414  0.096440241 -0.070160422 -0.013034426  0.011529668 
         116  0.097960047   0.10449539  0.082726447 -0.063562236 -0.0046238469 0.0023562481 
         118   0.06378937  0.066832368  0.051777217 -0.048423863 -0.0017119903 0.0025790673 
         120  0.065588377   0.06779502  0.062563993 -0.046463637 -0.0062133803 0.0054549355 
         122  0.060594581  0.084245324   0.05456068 -0.052938514  -0.00321833 0.0067284455 
         124  0.052435618  0.060065308  0.040737875 -0.046736258 -0.0062740235 0.0012877905 
         126  0.093152446   0.11389195  0.062947056 -0.083679922 -0.015931902  0.019287074 
         128  0.099798454     0.130375  0.076062757 -0.088419017 -0.017564411  0.014808349 
         130   0.08453755   0.10373448  0.065569262 -0.072873004 -0.012864702 0.0075966113 
         132  0.085794613   0.10748653  0.073419462 -0.069740598 -0.012889482 0.0075020157 
         134  0.063697354  0.083094241  0.054378962 -0.059124746 -0.011611924  0.012069785 
         136  0.069814354  0.084694133  0.053250458 -0.059363762 -0.0062978127 0.0070771601 
         138   0.11456285   0.12754232  0.083786742 -0.088437675 -0.015398726  0.010407523 
         140   0.12671724   0.12443612  0.076454979 -0.094137755 -0.016722852 0.0061079642 
         142   0.12269497   0.11291172  0.073624373 -0.086500388 -0.0060371344 0.0084024364 
         144   0.12017891   0.12482533  0.081323571 -0.088927706 0.0054517804 0.0024383461 
         146   0.16514034   0.14287011  0.095709055  -0.10761668 0.0099707872 -0.001964162 
         148   0.12976162   0.12799247   0.07929528  -0.09206497  0.017504153 -0.011908865 
         150  0.085360616  0.096565338   0.04959365 -0.065808888  0.012314613 -0.0098023613 
         152   0.10628476  0.094721969  0.059007321 -0.073718446  0.013107733 -0.0093282999 
         154   0.14610678   0.12029563  0.084468591 -0.083401087  0.017245102 -0.014430548 
         156  0.096095944  0.084477417  0.056455625 -0.062672463 0.0093038239 -0.0016863262 
         158  0.084065079  0.078310141  0.050458101 -0.056816049 0.0052068683 0.00054927286 
         160  0.092360706  0.091212908   0.05585949 -0.071499093   0.01330089 -0.0076925529 
         162   0.10320123   0.10610085  0.082114062 -0.073530069  0.013940772 -0.004782188 
         164   0.09058782  0.091153488  0.068081436 -0.071729182  0.013913471 -0.0065981185 
         166  0.086527286  0.095485853    0.0748679 -0.069877699  0.010901905 -0.0046221219 
         168  0.092502999   0.10528426  0.075413524 -0.067070293 0.0023513554 0.0057125238 
         170  0.087889156   0.11640063  0.079352095 -0.071814978 0.00026877548   0.00649168 
         172   0.10625114   0.12908801  0.087685236 -0.079329225 0.0049250967 0.0010313307 
         174   0.13051288   0.13708139  0.093342089 -0.085056777  0.014266437 -0.010424683 
         176   0.11028538   0.10790568  0.077779357 -0.068861566  0.012718208  -0.01510985 
         178   0.12403571   0.10870234  0.086563302 -0.068796452  0.011834106 -0.010022842 
         180   0.20516954   0.17565718   0.13189535  -0.10805645  0.031625771 -0.021621201 
         182   0.17380446   0.15118433   0.11238082 -0.096751847  0.027180103 -0.016077443 
         184   0.13656589   0.12387074  0.082128442 -0.080743763  0.019147679 -0.012391738 
         186   0.11499386   0.10622754  0.078146231 -0.063874138  0.018281039  -0.01166772 
         188  0.096334798  0.069947708  0.051415625 -0.051807863  0.012677082 -0.0069439778 
         190  0.096926442  0.054385186  0.043411918 -0.050905022  0.013265151 -0.005526302 
         192   0.17039648   0.11740155  0.086805332 -0.095169593  0.014246938 -0.012391431 
         194   0.15967349   0.10840692   0.09493152 -0.090485551  0.010365848 0.0026056084 
         196   0.14548318   0.10773614  0.083052268 -0.085268099   0.01551202  0.012263348 
         198    0.1104909   0.08112997  0.058196857 -0.069035314  0.010477443 0.0048315935 
         200  0.083303982   0.06329864  0.037902512 -0.055708476 0.0053226759 0.0057214692 
         202  0.089243283  0.067842643  0.047667586 -0.058454782 0.0074338514 0.0059517307 
         204    0.0935219  0.070195789  0.056126933 -0.057318725 0.0070801578 0.0032915644 
         206   0.12129785  0.099245281  0.067751823 -0.074530204  0.011214286 -0.0091532105 
         208  0.096991978   0.08629416  0.054127203 -0.063446572 0.0064926104 -0.0056599835 
         210    0.1395515   0.13339768  0.085598244 -0.085161066 0.0082615569 -0.0084506598 
         212   0.10597825   0.09070847  0.062105737  -0.07134948 0.0034678176 -0.010074848 
         214  0.088842435  0.084956054  0.058009309 -0.065177053 0.0086667926 -0.016260614 
         216   0.11671825   0.11247815  0.087757972 -0.079863787    0.0141939 -0.023681117 
         218   0.13222008   0.12597923   0.10134203 -0.085873236   0.01326994 -0.021279637 
         220     0.117249   0.11713658  0.092873364  -0.07780239  0.012370716  -0.01589307 
         222    0.1134435   0.10982109  0.087235806 -0.071508546  0.001641978  -0.01132301 
         224   0.11148109  0.098376249  0.077897307 -0.067005483 0.0039842948 -0.0089138513 
         226    0.1261598   0