LAMMPS (5 Jun 2019)
# SETTINGS
atom_style	sphere
comm_modify	mode single vel yes
newton off

# READ THE PARTICLE CONFIGURATION
read_data data.file
  triclinic box = (0 0 0) to (14.6381 14.6381 14.6381) with tilt (0 0 0)
  1 by 1 by 1 MPI processor grid
  reading atoms ...
  200 atoms
  reading velocities ...
  200 velocities
  read_data CPU = 0.0015161 secs

# SPECIFY THE PARTICLE-PARTICLE INTERACTION
pair_style hybrid/overlay granular lubricate/bmpoly 0.1 1 1 0.001 0.05 1 0
pair_coeff * * granular hooke 10000 0 tangential linear_history 7000 0 1
pair_coeff * * lubricate/bmpoly

# DO THE STRESS CALC
compute Temp all temp/profile 1 1 1 xyz 10 10 10
compute		str  all pressure Temp

# SPECIFY THE OUTPUTS
thermo_style	custom time c_str[1] c_str[2] c_str[3] c_str[4] c_str[5] c_str[6]
thermo          10000
thermo_modify format line "%.0f %12.4e %12.4e %12.4e %12.4e %12.4e %12.4e"
dump            id all custom 2000 data.dump id x y z radius

# SPECIFY THE TIMESTEP, THE INTEGRATION SCHEME AND RUN
timestep	0.0001
fix		    1 all nve/sphere
fix         2 all deform 1 xy erate 0.01 remap v
run 3000000
Neighbor list info ...
  update every 1 steps, delay 10 steps, check yes
  max neighbors/atom: 2000, page size: 100000
  master list distance cutoff = 3.1
  ghost atom cutoff = 3.1
  binsize = 1.55, bins = 10 10 10
  2 neighbor lists, perpetual/occasional/extra = 2 0 0
  (1) pair granular, perpetual
      attributes: half, newton off, size, history
      pair build: half/size/bin/newtoff
      stencil: half/bin/3d/newtoff
      bin: standard
  (2) pair lubricate/bmpoly, perpetual
      attributes: full, newton off
      pair build: full/bin/atomonly
      stencil: full/bin/3d
      bin: standard
Per MPI rank memory allocation (min/avg/max) = 11.33 | 11.33 | 11.33 Mbytes
Time c_str[1] c_str[2] c_str[3] c_str[4] c_str[5] c_str[6] 
0   2.2091e-03   8.9308e-03   2.1965e-02  -3.3713e-03  -5.6003e-03  -1.0448e-02 
1   1.6429e-03   2.3975e-04   4.1704e-04  -2.9488e-03  -2.5067e-04   1.2175e-04 
2   8.0807e-04   3.5070e-04   1.7416e-04  -2.4141e-03   2.7710e-04  -2.5200e-04 
3   7.2651e-04   4.2595e-04   2.3141e-04  -2.3494e-03   7.4465e-05  -1.5415e-05 
4   1.5847e-03   1.1684e-03   3.5006e-04  -3.0647e-03   2.2997e-04  -9.5829e-05 
5   9.5801e-04   7.4591e-04   2.9678e-04  -2.6981e-03   1.2023e-04  -1.0686e-04 
6   1.2055e-03   1.0801e-03   5.0833e-04  -2.8154e-03   1.1087e-04  -9.7304e-05 
7   1.5525e-03   1.2592e-03   6.2109e-04  -2.9289e-03   1.7482e-04  -7.1388e-05 
8   1.6752e-03   1.6194e-03   7.9162e-04  -3.1429e-03   1.0300e-04  -1.5506e-05 
9   1.8935e-03   1.6804e-03   7.3172e-04  -3.2901e-03   3.4505e-04  -1.5175e-04 
10   1.8749e-03   1.7871e-03   7.1177e-04  -3.3196e-03   2.6036e-04  -1.0053e-04 
11   2.1564e-03   1.7884e-03   8.6332e-04  -3.3894e-03   4.1024e-04  -1.7712e-04 
12   2.5927e-03   2.3677e-03   1.1007e-03  -3.8603e-03   4.1076e-04  -2.3402e-04 
13   2.7191e-03   2.6118e-03   1.0961e-03  -3.9884e-03   1.9201e-04  -2.6297e-05 
14   2.7396e-03   2.7248e-03   1.0494e-03  -3.9882e-03   2.4958e-04  -8.4015e-05 
15   3.1483e-03   3.0197e-03   1.1963e-03  -4.3284e-03   3.5403e-04  -1.5922e-04 
16   3.3351e-03   3.1927e-03   1.4116e-03  -4.5055e-03   4.8447e-04  -2.4923e-04 
17   3.4228e-03   3.4546e-03   1.3894e-03  -4.6566e-03   4.6031e-04  -1.8601e-04 
18   4.1257e-03   3.8367e-03   1.7744e-03  -5.1230e-03   6.7615e-04  -3.0531e-04 
19   4.2976e-03   4.2227e-03   1.6158e-03  -5.3826e-03   5.9852e-04  -2.7372e-04 
20   4.2834e-03   4.3327e-03   1.5683e-03  -5.3956e-03   5.3486e-04  -2.0237e-04 
21   4.4758e-03   4.3688e-03   1.5850e-03  -5.4467e-03   5.3110e-04  -2.1040e-04 
22   4.8210e-03   5.3153e-03   2.0195e-03  -5.9782e-03   5.7893e-04  -1.9372e-04 
23   5.3166e-03   5.7328e-03   2.1588e-03  -6.2961e-03   6.5078e-04  -2.5947e-04 
24   5.8936e-03   5.9613e-03   2.3026e-03  -6.5443e-03   4.5767e-04  -1.0808e-04 
25   6.7175e-03   6.7793e-03   2.9420e-03  -7.0938e-03   4.6592e-04  -1.0749e-04 
26   7.1944e-03   6.7404e-03   3.1018e-03  -7.1567e-03   5.7609e-04  -1.6596e-04 
27   7.9612e-03   7.5589e-03   3.1844e-03  -7.9692e-03   5.1370e-04  -1.2858e-04 
28   8.1574e-03   8.0842e-03   3.4809e-03  -8.1215e-03   5.2290e-04  -2.0826e-04 
29   8.6910e-03   8.3387e-03   3.5892e-03  -8.3539e-03   6.2050e-04  -1.4660e-04 
30   9.4411e-03   8.7879e-03   3.6824e-03  -8.7526e-03   6.1835e-04  -1.5976e-04 
31   1.0057e-02   9.9369e-03   4.3012e-03  -9.3965e-03   1.0008e-03  -3.1945e-04 
32   1.0069e-02   9.8665e-03   4.2357e-03  -9.3764e-03   6.8730e-04  -2.1220e-04 
33   1.0576e-02   1.0348e-02   4.7446e-03  -9.6201e-03   7.6110e-04   1.0829e-04 
34   1.1756e-02   1.1511e-02   5.7061e-03  -1.0566e-02   7.8070e-04   1.1689e-04 
35   1.1869e-02   1.1566e-02   5.9393e-03  -1.0665e-02   1.2409e-03  -7.0718e-05 
36   1.2595e-02   1.2533e-02   6.2096e-03  -1.1281e-02   1.1922e-03   1.9885e-04 
37   1.3428e-02   1.3264e-02   6.4630e-03  -1.1570e-02   1.2519e-03   1.2509e-04 
38   1.4173e-02   1.3611e-02   7.0818e-03  -1.2066e-02   1.4156e-03  -2.7521e-05 
39   1.5072e-02   1.4544e-02   7.9341e-03  -1.2856e-02   1.5893e-03  -2.2020e-04 
40   1.6489e-02   1.5915e-02   9.0064e-03  -1.3944e-02   1.7884e-03  -3.0267e-04 
41   1.8276e-02   1.6148e-02   9.3622e-03  -1.4845e-02   1.7446e-03  -4.1379e-04 
42   1.8990e-02   1.8034e-02   9.9684e-03  -1.6035e-02   1.6810e-03   1.2828e-04 
43   2.4131e-02   2.1980e-02   1.1904e-02  -1.9684e-02   2.6225e-03   1.0593e-04 
44   2.3967e-02   2.3475e-02   1.3305e-02  -1.9843e-02   2.1769e-03   2.6989e-04 
45   2.8631e-02   2.7519e-02   1.4000e-02  -2.4304e-02   1.4836e-03   6.9029e-04 
46   3.0336e-02   2.8043e-02   1.5109e-02  -2.3812e-02   2.3574e-03  -8.8842e-06 
47   4.5140e-02   4.1864e-02   2.1327e-02  -3.5488e-02   1.0164e-03   4.5691e-04 
48   4.3370e-02   3.8492e-02   1.6658e-02  -3.3314e-02   1.9446e-03  -1.1004e-03 
49   4.6873e-02   4.1839e-02   2.1379e-02  -3.4677e-02   2.0618e-03  -1.1361e-03 
50   4.6375e-02   4.1908e-02   2.2188e-02  -3.3990e-02   1.3329e-03  -1.1314e-03 
51   4.8228e-02   4.4967e-02   2.4007e-02  -3.5220e-02   4.2415e-05   3.0571e-04 
52   5.5817e-02   5.9537e-02   3.1341e-02  -4.1360e-02   1.1888e-04   2.1673e-03 
53   7.5476e-02   7.2802e-02   4.6402e-02  -5.2598e-02  -4.7637e-03   1.9617e-03 
54   7.6024e-02   7.4506e-02   4.7032e-02  -5.2079e-02  -4.1747e-03   3.4537e-03 
55   8.3155e-02   7.9778e-02   5.0392e-02  -5.4573e-02  -3.3442e-03   4.5538e-03 
56   8.0145e-02   7.7107e-02   5.0939e-02  -5.2949e-02  -3.2064e-03   3.8766e-03 
57   9.3919e-02   8.9640e-02   6.6025e-02  -6.0768e-02  -5.1480e-03   7.7460e-03 
58   8.6204e-02   8.7706e-02   5.9206e-02  -5.7482e-02  -2.5678e-03   4.7714e-03 
59   7.8147e-02   8.0137e-02   5.2626e-02  -5.4484e-02  -2.0887e-03   4.0433e-03 
60   8.2274e-02   8.0317e-02   5.1137e-02  -5.7792e-02  -6.0390e-05   5.1559e-03 
61   8.7757e-02   8.7382e-02   5.9800e-02  -6.1345e-02   9.2216e-04   5.0303e-03 
62   8.1764e-02   8.3135e-02   5.7090e-02  -5.6505e-02   3.0543e-03   6.3293e-03 
63   8.1760e-02   8.3231e-02   5.9218e-02  -5.9522e-02   2.7669e-03   3.3310e-03 
64   8.3799e-02   8.7064e-02   6.6641e-02  -6.1624e-02   9.0218e-03  -2.2648e-03 
65   8.2907e-02   8.0953e-02   6.3271e-02  -5.6731e-02   9.1777e-03  -1.6176e-03 
66   6.9791e-02   7.2262e-02   5.5972e-02  -5.0017e-02   7.9599e-03  -8.1431e-04 
67   7.0201e-02   8.0287e-02   5.1420e-02  -5.5500e-02   4.9829e-03  -6.8187e-04 
68   8.1108e-02   1.1234e-01   6.9001e-02  -6.7829e-02   9.6046e-03  -8.1279e-03 
69   6.8762e-02   9.3013e-02   5.4491e-02  -5.8575e-02   7.7702e-03  -6.6141e-03 
70   5.7087e-02   7.5450e-02   3.9361e-02  -4.8177e-02   3.6624e-03  -2.8393e-03 
71   5.7623e-02   7.7184e-02   3.8416e-02  -4.7393e-02   2.9473e-03  -2.8324e-03 
72   5.9871e-02   6.5914e-02   3.4263e-02  -4.7122e-02   9.7160e-04  -3.1325e-03 
73   6.1762e-02   6.6190e-02   4.0283e-02  -4.8183e-02   4.6605e-03  -4.6331e-03 
74   7.0929e-02   7.3539e-02   4.3910e-02  -5.3669e-02   3.7009e-03  -1.4855e-03 
75   7.2941e-02   6.6448e-02   4.8341e-02  -5.3509e-02   3.6584e-03  -4.8741e-03 
76   8.4101e-02   7.7110e-02   5.5747e-02  -5.8673e-02   4.9965e-03  -5.3281e-03 
77   7.7260e-02   6.6777e-02   4.9113e-02  -5.1562e-02   5.0329e-03  -6.4658e-03 
78   7.1796e-02   5.9293e-02   4.5114e-02  -4.8187e-02   4.3503e-03  -5.7916e-03 
79   8.3322e-02   7.3867e-02   5.4013e-02  -5.5045e-02   4.9673e-03  -1.0504e-02 
80   6.9673e-02   6.1551e-02   4.0482e-02  -4.9848e-02   6.6023e-03  -8.9917e-03 
81   6.2646e-02   6.0863e-02   4.6450e-02  -4.7348e-02   4.5390e-03  -9.3905e-03 
82   5.5953e-02   5.3422e-02   4.1230e-02  -4.3017e-02   7.9700e-03  -8.5247e-03 
83   5.2961e-02   5.5805e-02   4.3540e-02  -4.2351e-02   4.1958e-03  -7.1262e-03 
84   4.3574e-02   4.8734e-02   3.9158e-02  -3.8744e-02   2.7301e-03  -5.2003e-03 
85   4.1553e-02   4.6861e-02   3.5154e-02  -3.9790e-02   4.3919e-03  -3.2426e-03 
86   3.6348e-02   4.2835e-02   2.7881e-02  -3.6461e-02   4.9131e-03  -1.5723e-03 
87   3.0004e-02   3.7328e-02   2.3350e-02  -3.2361e-02   4.7315e-03   8.6104e-04 
88   2.8619e-02   2.9166e-02   1.9012e-02  -3.0264e-02   4.2230e-03   1.2595e-03 
89   3.1486e-02   3.2563e-02   2.0708e-02  -3.2447e-02   3.3664e-03   2.3510e-03 
90   3.9356e-02   4.0966e-02   2.3595e-02  -3.7499e-02   7.5871e-05   4.6288e-03 
91   4.6266e-02   5.7252e-02   2.9701e-02  -4.6107e-02  -3.1665e-03   2.5872e-03 
92   4.7910e-02   5.2660e-02   2.9295e-02  -4.4045e-02  -3.1197e-03   2.0796e-03 
93   4.9466e-02   5.6061e-02   3.0246e-02  -4.7016e-02  -3.9422e-03   2.1894e-03 
94   4.8216e-02   5.3771e-02   2.5792e-02  -4.4626e-02  -4.5441e-03   4.9308e-03 
95   4.3322e-02   4.5248e-02   2.3117e-02  -3.9849e-02  -4.2331e-03   3.7102e-03 
96   4.1463e-02   4.2745e-02   2.4882e-02  -3.8272e-02  -3.5982e-03   2.6564e-03 
97   4.9734e-02   4.9789e-02   3.3850e-02  -4.3886e-02  -4.1978e-03   3.0235e-03 
98   5.4998e-02   5.7668e-02   4.0980e-02  -4.7991e-02  -1.0056e-02   9.0929e-03 
99   6.7121e-02   6.3798e-02   4.5922e-02  -5.2709e-02  -8.7594e-03   1.0594e-02 
100   8.5234e-02   7.3741e-02   5.7355e-02  -6.2092e-02  -7.1918e-03   9.6792e-03 
101   1.1667e-01   1.0207e-01   7.6919e-02  -7.6085e-02  -1.1539e-02   8.0395e-03 
102   1.0284e-01   9.0506e-02   6.5585e-02  -6.8953e-02  -1.1133e-02   7.2698e-03 
103   1.1103e-01   1.0627e-01   7.7131e-02  -7.3858e-02  -1.0143e-02   3.2704e-03 
104   1.1027e-01   1.0873e-01   6.8739e-02  -7.4811e-02  -6.1500e-03   2.0277e-03 
105   1.0460e-01   1.1125e-01   7.6458e-02  -7.2583e-02  -5.5668e-03  -2.3331e-03 
106   1.1759e-01   1.2015e-01   8.4014e-02  -7.4316e-02  -5.9605e-03  -1.5448e-03 
107   1.3494e-01   1.3887e-01   9.8133e-02  -8.2259e-02  -9.7985e-03  -3.7132e-03 
108   1.1146e-01   1.1967e-01   8.4226e-02  -7.2202e-02  -7.0370e-03  -8.7924e-04 
109   1.1913e-01   1.3032e-01   9.2220e-02  -7.6300e-02  -8.1937e-03   1.4283e-03 
110   1.2954e-01   1.3181e-01   1.1107e-01  -7.7165e-02  -8.9482e-03   1.0623e-03 
111   1.4129e-01   1.5459e-01   1.3628e-01  -8.9377e-02  -8.0526e-03   3.2762e-03 
112   1.3104e-01   1.3176e-01   1.2850e-01  -8.2306e-02  -1.2039e-02   5.6795e-03 
113   1.0973e-01   1.2203e-01   1.1125e-01  -7.2072e-02  -8.5538e-03   1.0170e-03 
114   1.0059e-01   1.1590e-01   9.6378e-02  -7.0149e-02  -1.3041e-02   1.1532e-02 
115   1.0278e-01   1.1535e-01   8.9760e-02  -7.3378e-02  -8.6685e-03   1.3378e-02 
116   9.7883e-02   1.0444e-01   8.2679e-02  -6.3555e-02  -4.6241e-03   2.3562e-03 
117   8.8040e-02   9.7292e-02   8.2780e-02  -6.2164e-02  -6.6423e-03   4.8862e-03 
118   6.3722e-02   6.6778e-02   5.1736e-02  -4.8415e-02  -1.7151e-03   2.5818e-03 
119   7.1481e-02   7.0705e-02   6.3741e-02  -4.7979e-02  -4.9882e-03  -1.7774e-03 
120   6.5531e-02   6.7738e-02   6.2522e-02  -4.6459e-02  -6.2223e-03   5.4526e-03 
121   6.2498e-02   6.9578e-02   5.8676e-02  -4.6315e-02  -4.8980e-03   5.9752e-03 
122   6.0530e-02   8.4185e-02   5.4524e-02  -5.2926e-02  -3.2236e-03   6.7306e-03 
123   4.0998e-02   5.1709e-02   3.6254e-02  -3.8215e-02  -5.2191e-03   3.5900e-03 
124   5.2370e-02   6.0012e-02   4.0704e-02  -4.6724e-02  -6.2784e-03   1.2895e-03 
125   1.1321e-01   1.4049e-01   6.0593e-02  -1.0567e-01  -1.2505e-02   1.3507e-02 
126   9.3065e-02   1.1382e-01   6.2857e-02  -8.3681e-02  -1.5936e-02   1.9289e-02 
127   9.5914e-02   1.4420e-01   7.8584e-02  -9.4971e-02  -2.2595e-02   2.6788e-02 
128   9.9717e-02   1.3031e-01   7.5979e-02  -8.8416e-02  -1.7563e-02   1.4813e-02 
129   8.6182e-02   1.0460e-01   6.4811e-02  -7.4911e-02  -1.3219e-02   1.1249e-02 
130   8.4461e-02   1.0366e-01   6.5505e-02  -7.2872e-02  -1.2864e-02   7.6044e-03 
131   1.0426e-01   1.3367e-01   7.7554e-02  -8.2775e-02  -1.4241e-02   5.2163e-03 
132   8.5726e-02   1.0742e-01   7.3369e-02  -6.9738e-02  -1.2898e-02   7.5134e-03 
133   8.5174e-02   1.1038e-01   7.4658e-02  -6.9563e-02  -1.1417e-02   6.5128e-03 
134   6.3628e-02   8.3029e-02   5.4330e-02  -5.9114e-02  -1.1623e-02   1.2079e-02 
135   6.1387e-02   7.8089e-02   5.2071e-02  -5.7253e-02  -8.9328e-03   1.0805e-02 
136   6.9754e-02   8.4634e-02   5.3208e-02  -5.9358e-02  -6.3057e-03   7.0830e-03 
137   9.0326e-02   9.9645e-02   6.6805e-02  -6.9746e-02  -1.2887e-02   8.4572e-03 
138   1.1450e-01   1.2748e-01   8.3741e-02  -8.8437e-02  -1.5405e-02   1.0415e-02 
139   1.0427e-01   1.2284e-01   8.2169e-02  -7.9365e-02  -1.3322e-02   5.0538e-03 
140   1.2663e-01   1.2435e-01   7.6385e-02  -9.4131e-02  -1.6739e-02   6.1131e-03 
141   1.2301e-01   1.1461e-01   7.4105e-02  -8.7495e-02  -1.3539e-02   1.0333e-02 
142   1.2262e-01   1.1283e-01   7.3542e-02  -8.6491e-02  -6.0492e-03   8.3980e-03 
143   1.0870e-01   1.1172e-01   7.5027e-02  -8.0785e-02  -1.9282e-04   4.3785e-03 
144   1.2010e-01   1.2476e-01   8.1255e-02  -8.8922e-02   5.4313e-03   2.4457e-03 
145   1.3465e-01   1.3155e-01   7.7776e-02  -9.3701e-02   1.3023e-02  -1.0649e-02 
146   1.6507e-01   1.4279e-01   9.5648e-02  -1.0762e-01   9.9692e-03  -1.9524e-03 
147   1.3410e-01   1.2922e-01   8.4659e-02  -9.3465e-02   1.9214e-02  -9.5657e-03 
148   1.2968e-01   1.2791e-01   7.9242e-02  -9.2067e-02   1.7501e-02  -1.1907e-02 
149   1.0593e-01   1.0276e-01   4.9986e-02  -7.5445e-02   9.5807e-03  -1.3387e-02 
150   8.5269e-02   9.6483e-02   4.9528e-02  -6.5803e-02   1.2318e-02  -9.8095e-03 
151   9.0561e-02   8.4647e-02   4.5723e-02  -6.6384e-02   1.2451e-02  -7.3090e-03 
152   1.0620e-01   9.4626e-02   5.8955e-02  -7.3723e-02   1.3116e-02  -9.3331e-03 
153   1.3674e-01   1.1582e-01   8.5574e-02  -8.6932e-02   1.6558e-02  -1.6618e-02 
154   1.4603e-01   1.2020e-01   8.4402e-02  -8.3409e-02   1.7258e-02  -1.4428e-02 
155   1.3136e-01   1.1357e-01   8.2669e-02  -7.9131e-02   1.1547e-02   7.3345e-04 
156   9.6026e-02   8.4385e-02   5.6401e-02  -6.2676e-02   9.3062e-03  -1.6849e-03 
157   9.4829e-02   8.3041e-02   5.6100e-02  -6.0714e-02   6.5349e-03  -8.8631e-04 
158   8.4000e-02   7.8230e-02   5.0415e-02  -5.6817e-02   5.2030e-03   5.5699e-04 
159   8.5001e-02   8.1727e-02   4.9538e-02  -6.3447e-02   6.6469e-03  -3.8515e-05 
160   9.2290e-02   9.1140e-02   5.5812e-02  -7.1504e-02   1.3291e-02  -7.6895e-03 
161   1.0310e-01   1.1813e-01   8.4481e-02  -8.0119e-02   1.2984e-02  -1.2511e-03 
162   1.0311e-01   1.0602e-01   8.2043e-02  -7.3533e-02   1.3939e-02  -4.7849e-03 
163   7.9964e-02   8.6505e-02   6.5291e-02  -7.2676e-02   1.2458e-02  -5.2380e-03 
164   9.0504e-02   9.1069e-02   6.8002e-02  -7.1729e-02   1.3915e-02  -6.5918e-03 
165   8.6651e-02   9.1309e-02   6.7354e-02  -6.9574e-02   1.1757e-02  -4.1806e-03 
166   8.6441e-02   9.5409e-02   7.4807e-02  -6.9890e-02   1.0901e-02  -4.6131e-03 
167   8.9213e-02   1.0448e-01   7.7826e-02  -7.2150e-02   9.6422e-03   1.0880e-03 
168   9.2407e-02   1.0521e-01   7.5352e-02  -6.7074e-02   2.3534e-03   5.7123e-03 
169   7.9552e-02   1.0633e-01   7.2750e-02  -6.4750e-02   2.4584e-03   4.4941e-03 
170   8.7805e-02   1.1634e-01   7.9299e-02  -7.1813e-02   2.7644e-04   6.4915e-03 
171   1.0352e-01   1.2716e-01   8.0240e-02  -7.8590e-02   7.8386e-03   4.7189e-03 
172   1.0617e-01   1.2903e-01   8.7650e-02  -7.9333e-02   4.9322e-03   1.0302e-03 
173   1.0565e-01   1.2451e-01   7.4824e-02  -7.4034e-02   1.1919e-02  -9.8959e-03 
174   1.3045e-01   1.3703e-01   9.3312e-02  -8.5079e-02   1.4272e-02  -1.0413e-02 
175   1.2497e-01   1.3242e-01   9.6903e-02  -8.0745e-02   1.1916e-02  -1.0472e-02 
176   1.1017e-01   1.0782e-01   7.7721e-02  -6.8852e-02   1.2734e-02  -1.5109e-02 
177   9.1706e-02   8.3005e-02   5.4107e-02  -5.7872e-02   1.0968e-02  -1.0972e-02 
178   1.2426e-01   1.0885e-01   8.6683e-02  -6.8813e-02   1.1953e-02  -9.9772e-03 
179   1.6698e-01   1.5150e-01   1.0919e-01  -9.0418e-02   3.0209e-02  -1.3998e-02 
180   2.0497e-01   1.7454e-01   1.3141e-01  -1.0785e-01   3.1621e-02  -2.1605e-02 
181   1.7385e-01   1.5231e-01   1.1560e-01  -9.1110e-02   2.3693e-02  -1.0700e-02 
182   1.7437e-01   1.5109e-01   1.1276e-01  -9.6685e-02   2.7162e-02  -1.6029e-02 
183   1.6024e-01   1.3061e-01   9.6395e-02  -8.5856e-02   2.3873e-02  -1.5226e-02 
184   1.3732e-01   1.2259e-01   8.2404e-02  -8.0451e-02   1.8770e-02  -1.1658e-02 
185   1.4145e-01   1.2009e-01   8.8869e-02  -7.5471e-02   1.7405e-02  -1.5318e-02 
186   1.1509e-01   1.0544e-01   7.8267e-02  -6.3257e-02   1.8010e-02  -1.2189e-02 
187   1.0249e-01   7.7638e-02   5.7101e-02  -5.4482e-02   1.5877e-02  -1.2375e-02 
188   1.0563e-01   7.4914e-02   5.6207e-02  -5.5317e-02   1.4070e-02  -7.7321e-03 
189   1.0606e-01   7.1529e-02   5.1072e-02  -5.4787e-02   1.1362e-02  -7.4354e-03 
190   9.8567e-02   5.6069e-02   4.3847e-02  -5.1172e-02   1.2166e-02  -5.4888e-03 
191   9.8541e-02   6.5621e-02   4.7455e-02  -5.9123e-02   1.2516e-02  -6.6046e-03 
192   1.6339e-01   1.1468e-01   8.0900e-02  -9.6464e-02   1.2626e-02  -1.1488e-02 
193   1.4428e-01   8.1561e-02   6.3541e-02  -7.6334e-02   1.4526e-02  -5.7412e-03 
194   1.7110e-01   1.1197e-01   9.8404e-02  -9.3352e-02   1.0541e-02   2.5095e-03 
195   1.8181e-01   1.3409e-01   1.1350e-01  -1.0726e-01   1.6176e-02   1.6847e-02 
196   1.3452e-01   1.0156e-01   7.5435e-02  -8.0122e-02   1.5058e-02   1.0803e-02 
197   1.5052e-01   9.8978e-02   8.6395e-02  -8.6402e-02   1.6099e-02   9.5987e-03 
198   1.0250e-01   7.4295e-02   5.1905e-02  -6.5749e-02   8.2918e-03   4.6437e-03 
199   8.7188e-02   6.3576e-02   4.5037e-02  -5.7618e-02   7.0435e-03   6.5045e-03 
200   8.3744e-02   6.1123e-02   3.7380e-02  -5.6184e-02   4.6466e-03   4.9287e-03 
201   9.9244e-02   7.3442e-02   4.9159e-02  -6.4299e-02   5.5182e-03   4.3496e-03 
202   9.4191e-02   7.2632e-02   5.1303e-02  -6.0041e-02   7.5741e-03   5.9094e-03 
203   9.9291e-02   7.3452e-02   5.8686e-02  -5.9280e-02   7.3388e-03   4.5278e-03 
204   8.8987e-02   6.8238e-02   5.2300e-02  -5.7522e-02   3.8875e-03   4.2073e-03 
205   9.8359e-02   8.1450e-02   5.8762e-02  -6.5939e-02   9.2047e-03  -1.9243e-03 
206   1.0684e-01   8.8153e-02   6.4790e-02  -6.4950e-02   7.3727e-03  -2.0176e-03 
207   1.1016e-01   9.4008e-02   6.5379e-02  -6.6788e-02   7.4636e-03  -4.0655e-03 
208   9.7130e-02   8.4553e-02   5.5896e-02  -6.2146e-02   6.5693e-03  -5.3481e-03 
209   1.2469e-01   1.2053e-01   6.6692e-02  -8.2891e-02   6.3032e-03   2.0258e-03 
210   1.4389e-01   1.4106e-01   8.5457e-02  -8.8705e-02   5.2673e-03  -4.9668e-03 
211   1.2058e-01   1.0257e-01   6.4718e-02  -7.5515e-02   4.5751e-03  -1.5538e-02 
212   9.4307e-02   8.1321e-02   5.5965e-02  -6.2777e-02   7.5803e-03  -1.4303e-02 
213   1.0713e-01   9.3660e-02   7.0585e-02  -7.3032e-02   6.4339e-03  -1.3693e-02 
214   9.6067e-02   8.9545e-02   6.3168e-02  -6.9159e-02   9.4984e-03  -1.8707e-02 
215   1.1642e-01   1.1733e-01   8.9613e-02  -8.3937e-02   1.5858e-02  -2.7024e-02 
216   1.4602e-01   1.4590e-01   1.1503e-01  -1.0082e-01   2.0527e-02  -3.6703e-02 
217   1.2600e-01   1.2287e-01   9.2801e-02  -8.5047e-02   1.1488e-02  -1.9031e-02 
218   1.2349e-01   1.1926e-01   9.3262e-02  -8.2406e-02   1.3516e-02  -2.0735e-02 
219   1.0933e-01   1.2121e-01   9.0450e-02  -7.6276e-02   7.9731e-03  -1.5815e-02 
220   1.0394e-01   1.0917e-01   7.8885e-02  -7.1720e-02   2.0214e-03  -1.2643e-02 
221   9.2396e-02   9.7398e-02   7.3208e-02  -6.2655e-02   2.4027e-03  -1.1511e-02 
222   1.0348e-01   1.0675e-01   8.4162e-02  -6.9260e-02   2.9775e-03  -1.3419e-02 
223   1.0841e-01   1.0106e-01   8.7599e-02  -7.1601e-02   8.2443e-03  -9.1476e-03 
224   1.2535e-01   1.1458e-01   9.0442e-02  -7.3726e-02   7.6581e-03  -1.3058e-02 
225   1.2154e-01   1.1057e-01   9.7624e-02  -7.2680e-02   7.7616e-03  -1.2153e-02 
226   1.3627e-01   1.1765e-01   1.0222e-01  -7.3927e-02   1.1422e-03  -9.4394e-03 
227   1.1895e-01   9.2714e-02   9.2790e-02  -6.3010e-02   4.9486e-03  -8.1669e-03 
228   1.2192e-01   9.0862e-02   8.4213e-02  -6.4104e-02   3.3092e-03  -8.8264e-03 
229   1.0929e-01   7.8747e-02   7.1178e-02  -6.0870e-02   5.7729e-04  -6.2613e-03 
230   8.2007e-02   5.6122e-02   5.3029e-02  -4.8364e-02   1.8017e-03  -4.9948e-03 
231   1.0769e-01   7.2812e-02   7.1634e-02  -5.8140e-02   4.9639e-03  -6.9510e-03 
232   9.7112e-02   6.4252e-02   6.3369e-02  -5.6336e-02  -8.7683e-04  -4.9300e-03 
233   9.6724e-02   6.7155e-02   5.8600e-02  -5.4827e-02   2.2182e-03  -5.4243e-03 
234   9.4797e-02   6.5797e-02   5.5199e-02  -5.5954e-02   3.6380e-03  -6.3784e-03 
235   9.9314e-02   7.2332e-02   6.4524e-02  -5.9402e-02   4.8854e-03  -7.9328e-03 
236   1.1685e-01   8.4816e-02   5.6483e-02  -7.0848e-02   6.6220e-03  -9.2065e-03 
237   8.7757e-02   6.7321e-02   5.0226e-02  -6.1470e-02   1.2726e-02  -9.1924e-03 
238   1.0536e-01   8.0307e-02   6.1933e-02  -7.0134e-02   1.3250e-02  -7.6995e-03 
239   1.0867e-01   8.5833e-02   7.0481e-02  -6.8823e-02   1.2712e-02  -5.8543e-03 
240   1.0996e-01   8.8187e-02   8.3100e-02  -6.8403e-02   1.5208e-02  -9.3044e-03 
241   1.2082e-01   1.0411e-01   8.8925e-02  -7.5934e-02   1.7895e-02  -1.5814e-02 
242   1.2743e-01   9.8424e-02   8.8173e-02  -7.1767e-02   7.4817e-03  -1.3789e-02 
243   1.1847e-01   9.6316e-02   8.7744e-02  -7.1015e-02   7.9567e-03  -1.2388e-02 
244   1.3109e-01   1.0996e-01   9.0220e-02  -8.1888e-02   5.5484e-03  -7.9113e-03 
245   1.3397e-01   1.2580e-01   9.6211e-02  -8.4035e-02   1.2565e-02  -1.9317e-02 
246   1.3099e-01   1.2485e-01   9.1380e-02  -8.3804e-02   1.1777e-02  -1.6492e-02 
247   1.4016e-01   1.2857e-01   1.0361e-01  -8.3860e-02   1.9721e-02  -2.5056e-02 
248   1.6845e-01   1.5380e-01   1.3904e-01  -1.0045e-01   2.4095e-02  -3.3153e-02 
249   1.5930e-01   1.4532e-01   1.2011e-01  -9.7196e-02   2.4069e-02  -3.2658e-02 
250   1.2522e-01   1.1538e-01   8.4691e-02  -8.1848e-02   2.0987e-02  -2.7797e-02 
251   1.6141e-01   1.4288e-01   1.1107e-01  -9.6871e-02   2.0180e-02  -2.4610e-02 
252   1.5296e-01   1.4924e-01   8.9243e-02  -1.0355e-01   8.5543e-03  -1.4893e-02 
253   1.1976e-01   1.2438e-01   7.1763e-02  -8.5365e-02   9.1300e-03  -1.0757e-02 
254   1.6090e-01   1.7922e-01   1.2461e-01  -1.1681e-01   8.9519e-03   4.2039e-04 
255   1.7776e-01   1.7534e-01   1.3447e-01  -1.1499e-01   3.0859e-02  -1.8966e-02 
256   1.3489e-01   1.3438e-01   1.0417e-01  -9.7833e-02   2.4870e-02  -1.5333e-02 
257   1.8951e-01   2.1220e-01   1.4431e-01  -1.2641e-01   2.7767e-02  -2.7477e-02 
258   1.3064e-01   1.6509e-01   1.1610e-01  -9.3241e-02   1.5054e-02  -1.3701e-02 
259   1.3729e-01   1.7097e-01   1.1114e-01  -1.0296e-01   2.2322e-02  -9.5435e-03 
260   9.5690e-02   1.0886e-01   6.8411e-02  -7.2912e-02   1.4497e-02  -3.0538e-03 
261   8.0339e-02   9.4208e-02   4.8252e-02  -6.1566e-02   1.3446e-02  -4.5474e-03 
262   7.3428e-02   8.1544e-02   4.7364e-02  -5.5542e-02   1.0595e-02  -1.6789e-03 
263   6.9378e-02   7.0922e-02   4.2495e-02  -5.0767e-02   1.1503e-02  -4.0459e-03 
264   5.8981e-02   6.1945e-02   3.6170e-02  -4.5940e-02   9.8890e-03  -2.0696e-04 
265   5.0538e-02   5.1821e-02   3.1254e-02  -3.9841e-02   8.1701e-03  -1.8073e-03 
266   4.8631e-02   5.0273e-02   2.9720e-02  -3.8131e-02   8.2831e-03  -1.7298e-03 
267   4.0397e-02   4.2449e-02   2.3778e-02  -3.2594e-02   6.1136e-03  -9.6866e-05 
268   3.8843e-02   4.2418e-02   2.4843e-02  -3.2162e-02   7.1087e-03  -3.2740e-04 
269   3.7636e-02   4.4964e-02   2.5400e-02  -3.1490e-02   3.9355e-03  -5.8371e-04 
270   3.7415e-02   3.7711e-02   3.0350e-02  -3.1130e-02   2.4533e-03   1.1064e-04 
271   4.2217e-02   4.4043e-02   3.8771e-02  -3.4892e-02   5.8627e-04  -2.7413e-04 
272   4.3356e-02   4.7871e-02   3.7430e-02  -3.7055e-02   2.0268e-03   9.7407e-04 
273   4.5919e-02   5.4396e-02   3.9386e-02  -4.1507e-02   4.1735e-03   1.1519e-03 
274   5.5090e-02   6.7535e-02   4.6208e-02  -4.4919e-02   4.4322e-03   4.3543e-03 
275   4.7974e-02   5.5621e-02   4.2089e-02  -3.9895e-02   3.9442e-03   2.5942e-03 
276   4.1994e-02   4.7260e-02   3.7366e-02  -3.5751e-02   2.9574e-03   4.2520e-03 
277   5.0552e-02   5.1624e-02   3.6674e-02  -4.2885e-02   6.0033e-03   3.6641e-03 
278   4.3160e-02   4.8172e-02   2.8419e-02  -3.7631e-02   5.0516e-03   2.8926e-03 
279   6.1822e-02   5.7925e-02   3.4990e-02  -4.7744e-02   6.8630e-03   2.7932e-03 
280   6.6324e-02   6.2158e-02   3.7677e-02  -4.7861e-02   2.9571e-03   4.5863e-03 
281   6.4217e-02   5.9256e-02   3.5185e-02  -4.5438e-02  -3.0317e-03   8.1465e-03 
282   6.0516e-02   5.1800e-02   3.1424e-02  -4.2586e-02  -5.4731e-03   7.8008e-03 
283   7.1008e-02   5.3714e-02   3.2123e-02  -4.8215e-02  -1.1310e-02   1.2442e-02 
284   6.0385e-02   4.7171e-02   3.2838e-02  -4.4033e-02  -9.9309e-03   9.9052e-03 
285   5.8349e-02   4.6921e-02   3.1081e-02  -4.2296e-02  -4.6584e-03   6.1572e-03 
286   6.6634e-02   5.2593e-02   3.8474e-02  -4.5922e-02  -4.2812e-03   5.6585e-03 
287   1.0584e-01   7.9345e-02   6.8497e-02  -6.5247e-02  -8.2533e-03   7.7945e-03 
288   7.7995e-02   6.1054e-02   4.7002e-02  -5.1876e-02  -4.8837e-03   4.6509e-03 
289   6.8115e-02   5.3558e-02   4.3722e-02  -4.8142e-02  -2.4680e-03   4.4451e-03 
290   5.9681e-02   4.7466e-02   3.7901e-02  -4.4244e-02  -1.9062e-03   4.0903e-03 
291   5.5775e-02   4.8942e-02   4.0165e-02  -4.3279e-02  -3.8723e-03   6.8559e-03 
292   5.4379e-02   4.7417e-02   4.2069e-02  -4.3028e-02  -4.3772e-03   4.9846e-03 
293   4.9894e-02   4.3117e-02   3.5226e-02  -3.9576e-02  -3.3750e-03   4.6444e-03 
294   5.7617e-02   5.0557e-02   4.1223e-02  -4.2660e-02  -5.4724e-03   6.0835e-03 
295   7.0081e-02   6.0156e-02   5.5063e-02  -4.8132e-02  -8.7215e-03   5.8465e-03 
296   7.7506e-02   6.2022e-02   4.9615e-02  -4.9421e-02  -5.7909e-03   7.2128e-03 
297   8.0121e-02   6.3382e-02   5.2705e-02  -4.8480e-02  -1.0236e-02   5.8435e-03 
298   9.6502e-02   7.2870e-02   5.6047e-02  -5.5476e-02  -5.2562e-03   3.7999e-03 
299   9.5820e-02   7.8945e-02   6.1887e-02  -5.6908e-02  -6.2532e-03   4.6577e-03 
300   8.5983e-02   7.9011e-02   5.0699e-02  -5.4492e-02  -2.0216e-03   4.5539e-03 
Loop time of 525.846 on 1 procs for 3000000 steps with 200 atoms

Performance: 49292.013 tau/day, 5705.094 timesteps/s
97.3% CPU use with 1 MPI tasks x no OpenMP threads

MPI task timing breakdown:
Section |  min time  |  avg time  |  max time  |%varavg| %total
---------------------------------------------------------------
Pair    | 493.34     | 493.34     | 493.34     |   0.0 | 93.82
Neigh   | 0.24688    | 0.24688    | 0.24688    |   0.0 |  0.05
Comm    | 14.876     | 14.876     | 14.876     |   0.0 |  2.83
Output  | 0.37735    | 0.37735    | 0.37735    |   0.0 |  0.07
Modify  | 13.487     | 13.487     | 13.487     |   0.0 |  2.56
Other   |            | 3.523      |            |       |  0.67

Nlocal:    200 ave 200 max 200 min
Histogram: 1 0 0 0 0 0 0 0 0 0
Nghost:    402 ave 402 max 402 min
Histogram: 1 0 0 0 0 0 0 0 0 0
Neighs:    734 ave 734 max 734 min
Histogram: 1 0 0 0 0 0 0 0 0 0
FullNghs:  1198 ave 1198 max 1198 min
Histogram: 1 0 0 0 0 0 0 0 0 0

Total # of neighbors = 1198
Ave neighs/atom = 5.99
Neighbor list builds = 621
Dangerous builds = 0







Total wall time: 0:08:45
