ITEM: TIMESTEP
0
ITEM: NUMBER OF ATOMS
200
ITEM: BOX BOUNDS xy xz yz pp pp pp
0.0000000000000000e+00 1.4638100000000000e+01 0.0000000000000000e+00
0.0000000000000000e+00 1.4638100000000000e+01 0.0000000000000000e+00
0.0000000000000000e+00 1.4638100000000000e+01 0.0000000000000000e+00
ITEM: ATOMS id x y z radius 
1 0.468928 1.67761 13.4244 1.4 
2 12.7422 3.82071 5.8513 1.4 
3 13.6057 12.9384 6.37571 1.4 
4 8.51247 4.47821 1.80652 1.4 
5 6.04804 13.8388 1.31335 1.4 
6 12.119 11.6189 9.11177 1.4 
7 2.3587 10.4006 0.85662 1.4 
8 4.81503 12.718 5.95615 1.4 
9 8.5059 10.8105 9.04657 1.4 
10 13.9988 5.84257 1.90122 1.4 
11 10.4478 2.38611 6.82558 1.4 
12 0.394699 11.1628 4.70775 1.4 
13 1.50503 14.0772 5.77372 1.4 
14 1.90327 3.65312 11.8216 1.4 
15 3.38522 3.47075 14.2456 1.4 
16 7.53218 3.05311 8.67069 1.4 
17 6.59399 12.2179 13.6011 1.4 
18 8.54194 12.6346 11.3 1.4 
19 7.33621 4.29275 5.78018 1.4 
20 13.6751 2.28299 1.64665 1.4 
21 0.0250887 1.82607 4.80147 1.4 
22 6.64146 10.4286 6.37527 1.4 
23 4.07748 3.70626 5.21463 1.4 
24 9.82574 3.47156 4.27517 1.4 
25 7.82083 2.67945 12.7313 1.4 
26 12.4437 14.2719 2.33679 1.4 
27 7.86081 9.69501 14.2045 1.4 
28 2.42909 12.8622 13.9914 1.4 
29 6.49018 11.9001 3.76776 1.4 
30 7.62305 1.53852 6.24115 1.4 
31 6.00429 4.49486 14.5449 1.4 
32 9.77829 5.313 8.98445 1.4 
33 0.0177602 8.26061 6.88617 1.4 
34 10.0619 5.66184 12.3157 1.4 
35 5.85476 6.81915 6.49959 1.4 
36 6.46901 14.4616 11.7784 1.4 
37 11.5398 7.54465 0.905611 1.4 
38 4.26794 12.2336 11.4356 1.4 
39 8.47507 11.9801 1.19469 1.4 
40 2.42851 7.74939 2.724 1.4 
41 9.98322 8.75842 5.65084 1.4 
42 13.8196 13.8672 9.05883 1.4 
43 2.71595 5.198 7.32608 1.4 
44 0.865209 3.74898 8.92049 1.4 
45 1.52857 7.80454 14.5996 1.4 
46 11.3747 0.78951 9.08914 1.4 
47 1.46825 0.980631 9.40159 1.4 
48 13.5194 9.63356 14.5815 1.4 
49 12.3801 6.6881 5.03329 1.4 
50 7.80484 7.28977 1.46314 1.4 
51 4.69567 3.98587 11.7777 1.4 
52 1.84759 1.81456 1.3976 1.4 
53 6.11193 0.627373 8.48735 1.4 
54 5.15983 8.58349 1.02701 1.4 
55 1.99757 10.6717 12.2058 1.4 
56 2.54155 4.41714 2.58267 1.4 
57 9.47823 9.73087 11.9175 1.4 
58 8.28855 9.67125 3.20828 1.4 
59 9.50846 0.977127 11.2399 1.4 
60 14.2706 9.01479 2.79648 1.4 
61 10.1475 3.56951 14.203 1.4 
62 14.1082 11.7017 11.5589 1.4 
63 10.9638 14.0889 6.05412 1.4 
64 6.17722 3.49148 3.35894 1.4 
65 0.907176 6.15567 4.62709 1.4 
66 2.37199 11.4417 6.7007 1.4 
67 10.8834 0.460287 14.1361 1.4 
68 6.23602 12.4597 8.44421 1.4 
69 5.43006 9.51786 9.61765 1.4 
70 2.57726 1.8533 6.95974 1.4 
71 0.57251 14.3706 2.95997 1.4 
72 10.5066 12.57 3.64619 1.4 
73 12.559 3.85725 8.65616 1.4 
74 2.01532 7.54643 11.8214 1.4 
75 13.7781 6.57963 12.9222 1.4 
76 12.3814 10.3449 5.65808 1.4 
77 4.11905 2.37301 9.49204 1.4 
78 5.22637 8.50006 3.93673 1.4 
79 1.27333 14.0011 11.6962 1.4 
80 3.44342 13.6664 8.27376 1.4 
81 0.84495 9.22032 9.45573 1.4 
82 12.0875 12.6014 13.5979 1.4 
83 0.0608867 6.50715 9.38216 1.4 
84 5.14856 5.01504 8.75201 1.4 
85 12.9705 8.85676 11.1153 1.4 
86 7.98233 13.3366 5.92242 1.4 
87 11.8103 2.73255 11.6317 1.4 
88 1.64247 12.0009 9.74264 1.4 
89 3.46349 0.295688 3.32554 1.4 
90 7.73735 8.15772 8.25584 1.4 
91 13.2198 0.157622 11.6794 1.4 
92 6.55638 7.09676 13.5264 1.4 
93 10.0168 6.52011 3.0546 1.4 
94 10.2345 1.66023 2.02648 1.4 
95 12.3623 6.71341 7.84345 1.4 
96 4.95745 5.7997 2.21511 1.4 
97 6.14784 0.122189 4.25822 1.4 
98 11.41 9.82598 2.76697 1.4 
99 3.32942 7.38361 9.19306 1.4 
100 7.25157 5.3203 11.4693 1.4 
101 2.28971 2.38415 4.13444 1 
102 8.66116 13.7708 13.8249 1 
103 11.8842 5.14409 0.925605 1 
104 3.26477 8.54576 5.40319 1 
105 5.6424 2.78706 6.88787 1 
106 4.80698 1.21048 5.94131 1 
107 2.36003 13.3489 1.72646 1 
108 9.71422 6.04296 0.304103 1 
109 1.2541 5.18303 13.5628 1 
110 11.2333 12.4498 1.34874 1 
111 10.4171 5.4756 6.06889 1 
112 12.8308 2.43747 13.8747 1 
113 3.30807 5.81844 0.457466 1 
114 0.273746 11.6802 0.425439 1 
115 8.88232 3.6923 10.6559 1 
116 7.5958 8.16978 5.12849 1 
117 6.36766 2.21779 10.8199 1 
118 13.2141 4.73942 10.7903 1 
119 2.87988 9.70347 8.27859 1 
120 14.2631 3.9276 12.5891 1 
121 10.8515 13.5537 10.8887 1 
122 13.0775 12.2847 3.72655 1 
123 8.41748 7.42718 11.8562 1 
124 9.75501 14.0326 1.38144 1 
125 6.89091 9.3531 11.5657 1 
126 0.0525592 13.1904 13.6319 1 
127 4.17594 6.53824 13.2997 1 
128 7.49994 5.72784 8.3543 1 
129 2.89647 1.40235 11.8231 1 
130 12.6175 1.28113 6.35874 1 
131 12.2994 2.92447 3.57296 1 
132 4.57989 8.87556 6.92035 1 
133 3.12169 12.3266 4.27934 1 
134 9.07796 0.781928 7.99352 1 
135 0.785925 14.2701 0.552234 1 
136 7.93411 1.76843 2.7417 1 
137 9.11988 10.9772 5.34735 1 
138 1.0353 3.82335 5.88482 1 
139 11.3766 11.4573 11.4434 1 
140 7.01446 2.51409 0.86879 1 
141 11.3221 7.9559 13.0501 1 
142 7.53114 6.33221 4.29812 1 
143 2.44811 5.19839 9.99955 1 
144 6.14423 10.784 1.27077 1 
145 9.909 2.86777 9.1143 1 
146 2.7014 0.703157 14.0127 1 
147 4.13154 12.7571 2.45781 1 
148 12.926 0.00111074 4.78624 1 
149 4.24715 10.3846 5.59279 1 
150 3.87304 14.4171 10.5139 1 
151 14.4038 10.7325 7.86958 1 
152 6.82941 7.58376 10.4202 1 
153 1.87009 11.719 2.82046 1 
154 10.4457 9.52874 9.72724 1 
155 8.34634 14.3414 2.87927 1 
156 2.54703 10.1754 4.05884 1 
157 14.4615 4.10367 4.0044 1 
158 14.2806 1.47861 7.58675 1 
159 4.71444 6.37185 11.3382 1 
160 3.47049 6.43212 4.44996 1 
161 3.99539 10.5032 2.60942 1 
162 10.0293 12.8715 8.96023 1 
163 5.21879 1.66405 12.7112 1 
164 4.6183 8.50404 12.3434 1 
165 10.1462 7.6012 8.10161 1 
166 4.91354 14.3584 13.8169 1 
167 10.6124 9.7713 7.7444 1 
168 11.4553 9.96591 13.3438 1 
169 1.06496 4.1302 0.712545 1 
170 8.20458 5.12492 13.8018 1 
171 4.88475 1.56005 0.0602951 1 
172 4.46453 10.113 13.8667 1 
173 3.1172 9.50589 10.2935 1 
174 1.28722 8.85364 4.92316 1 
175 4.45016 11.7853 0.645644 1 
176 9.64344 11.8195 13.5134 1 
177 13.5347 11.4578 1.95524 1 
178 3.94958 11.3886 9.02036 1 
179 11.3784 1.36984 4.47775 1 
180 12.0638 4.9521 3.01548 1 
181 2.3205 7.52639 6.84231 1 
182 10.2477 7.48783 10.271 1 
183 14.3752 2.31243 10.769 1 
184 10.9197 10.6239 0.55725 1 
185 8.56384 6.71485 6.28437 1 
186 13.7542 4.35205 14.5608 1 
187 4.43067 3.09934 1.75727 1 
188 9.5741 9.06902 1.27315 1 
189 0.228682 5.62105 6.89878 1 
190 8.56095 1.46684 0.144755 1 
191 9.40092 0.7076 4.34422 1 
192 6.76993 0.872615 14.0113 1 
193 10.4169 11.776 6.69324 1 
194 12.1459 4.86262 13.3984 1 
195 5.42174 1.4067 2.28549 1 
196 12.0618 6.63553 10.8739 1 
197 8.2522 14.0227 9.16676 1 
198 13.2894 0.46095 14.4163 1 
199 9.46586 7.83234 13.841 1 
200 3.77472 14.5663 0.973337 1 
ITEM: TIMESTEP
10000
ITEM: NUMBER OF ATOMS
200
ITEM: BOX BOUNDS xy xz yz pp pp pp
0.0000000000000000e+00 1.4784481000000000e+01 1.4638099999999987e-01
0.0000000000000000e+00 1.4638100000000000e+01 0.0000000000000000e+00
0.0000000000000000e+00 1.4638100000000000e+01 0.0000000000000000e+00
ITEM: ATOMS id x y z radius 
1 0.47903 1.65555 13.4378 1.4 
2 12.7048 3.82687 5.84685 1.4 
3 13.6246 12.9304 6.38969 1.4 
4 8.51334 4.48897 1.80139 1.4 
5 6.09352 13.8363 1.31512 1.4 
6 12.1278 11.6213 9.1082 1.4 
7 2.36855 10.4036 0.853889 1.4 
8 4.83131 12.7154 5.96532 1.4 
9 8.51597 10.8086 9.04799 1.4 
10 13.9974 5.86051 1.92474 1.4 
11 10.469 2.36116 6.81606 1.4 
12 0.408526 11.1705 4.703 1.4 
13 1.51973 14.072 5.76816 1.4 
14 1.90479 3.64514 11.8217 1.4 
15 3.38749 3.47157 14.2456 1.4 
16 7.52438 3.05245 8.67056 1.4 
17 6.607 12.2179 13.6011 1.4 
18 8.56611 12.6267 11.2842 1.4 
19 7.34922 4.29515 5.78378 1.4 
20 13.6794 2.28176 1.64702 1.4 
21 0.0163877 1.83098 4.81204 1.4 
22 6.65257 10.4286 6.37527 1.4 
23 4.07458 3.70852 5.21143 1.4 
24 9.83709 3.47184 4.27698 1.4 
25 7.81975 2.66877 12.7386 1.4 
26 12.4557 14.2835 2.32352 1.4 
27 7.86244 9.68221 14.1949 1.4 
28 2.4513 12.8577 14.0072 1.4 
29 6.50285 11.9001 3.76776 1.4 
30 7.61009 1.54017 6.2456 1.4 
31 6.0068 4.50007 14.5342 1.4 
32 9.78703 5.33496 8.96599 1.4 
33 14.6579 8.25275 6.89162 1.4 
34 10.072 5.65368 12.3119 1.4 
35 5.86202 6.81915 6.49959 1.4 
36 6.49932 14.456 11.7742 1.4 
37 11.555 7.54067 0.898248 1.4 
38 4.27395 12.2395 11.4431 1.4 
39 8.49181 11.9939 1.21753 1.4 
40 2.44131 7.75277 2.72452 1.4 
41 9.97614 8.75679 5.64874 1.4 
42 13.8546 13.8512 9.06769 1.4 
43 2.72936 5.18039 7.32459 1.4 
44 0.863743 3.75764 8.91939 1.4 
45 1.52976 7.81331 14.5975 1.4 
46 11.3648 0.797973 9.08629 1.4 
47 1.47502 0.976437 9.40559 1.4 
48 13.5334 9.62134 14.5795 1.4 
49 12.3888 6.67147 5.03926 1.4 
50 7.81414 7.28862 1.45992 1.4 
51 4.69458 3.9873 11.7794 1.4 
52 1.84952 1.81456 1.3976 1.4 
53 6.10364 0.626675 8.48054 1.4 
54 5.15083 8.59209 1.03685 1.4 
55 1.99552 10.6812 12.2278 1.4 
56 2.5522 4.41372 2.59515 1.4 
57 9.49549 9.73199 11.9192 1.4 
58 8.30688 9.6765 3.21056 1.4 
59 9.5113 0.98858 11.2337 1.4 
60 14.2802 9.01479 2.79648 1.4 
61 10.1519 3.57397 14.2118 1.4 
62 14.1129 11.689 11.5199 1.4 
63 11.0065 14.0888 6.03138 1.4 
64 6.18339 3.48914 3.36747 1.4 
65 0.917215 6.15857 4.61943 1.4 
66 2.39251 11.4366 6.68968 1.4 
67 10.8699 0.48232 14.1454 1.4 
68 6.25582 12.4563 8.4609 1.4 
69 5.44555 9.52185 9.61809 1.4 
70 2.56158 1.85865 6.95607 1.4 
71 0.584801 14.3777 2.94592 1.4 
72 10.5227 12.5583 3.6564 1.4 
73 12.5965 3.85974 8.6558 1.4 
74 2.03048 7.53766 11.8235 1.4 
75 13.8006 6.5656 12.9243 1.4 
76 12.3924 10.3449 5.65808 1.4 
77 4.11934 2.37848 9.48467 1.4 
78 5.22778 8.52779 3.91605 1.4 
79 1.342 13.9968 11.6914 1.4 
80 3.46035 13.6595 8.27236 1.4 
81 0.859493 9.22616 9.4596 1.4 
82 12.1047 12.5843 13.5777 1.4 
83 0.0676596 6.50774 9.37607 1.4 
84 5.15593 5.03141 8.75829 1.4 
85 12.9638 8.86236 11.125 1.4 
86 8.01613 13.3186 5.92961 1.4 
87 11.8132 2.73255 11.6317 1.4 
88 1.68599 11.9894 9.74898 1.4 
89 3.42201 0.303778 3.31684 1.4 
90 7.74766 8.15372 8.25822 1.4 
91 13.1545 0.180837 11.6885 1.4 
92 6.57153 7.10476 13.5418 1.4 
93 10.0248 6.52538 3.05537 1.4 
94 10.2224 1.64561 2.01532 1.4 
95 12.36 6.71193 7.85052 1.4 
96 4.95889 5.80574 2.20184 1.4 
97 6.12476 0.145278 4.24806 1.4 
98 11.4263 9.82514 2.76444 1.4 
99 3.33333 7.3841 9.18087 1.4 
100 7.25722 5.32453 11.4853 1.4 
101 2.29087 2.36337 4.14352 1 
102 8.68798 13.7708 13.8249 1 
103 11.8961 5.1429 0.924352 1 
104 3.30369 8.50057 5.41706 1 
105 5.63037 2.77368 6.92491 1 
106 4.8024 1.21366 5.95259 1 
107 2.38409 13.3344 1.74815 1 
108 9.73243 6.02981 0.31423 1 
109 1.26012 5.18375 13.5572 1 
110 11.243 12.4503 1.35917 1 
111 10.4278 5.4756 6.06889 1 
112 12.8506 2.47527 13.8496 1 
113 3.31121 5.82598 0.445034 1 
114 0.296492 11.6802 0.425439 1 
115 8.87204 3.68413 10.6447 1 
116 7.63835 8.17731 5.10832 1 
117 6.37152 2.23941 10.8155 1 
118 13.245 4.72 10.8008 1 
119 2.88715 9.68701 8.26064 1 
120 14.2652 3.92076 12.5874 1 
121 10.8918 13.5499 10.8872 1 
122 13.0855 12.258 3.73445 1 
123 8.45623 7.41918 11.824 1 
124 9.82011 14.0388 1.33451 1 
125 6.90966 9.33544 11.5625 1 
126 14.7194 13.2069 13.618 1 
127 4.20599 6.55012 13.2995 1 
128 7.47795 5.7035 8.4255 1 
129 2.89921 1.40235 11.8231 1 
130 12.6192 1.28939 6.37089 1 
131 12.302 2.92237 3.56634 1 
132 4.56512 8.87965 6.95773 1 
133 3.14561 12.3506 4.27752 1 
134 9.08345 0.759716 7.97188 1 
135 0.839327 14.2678 0.544146 1 
136 7.93415 1.74591 2.76468 1 
137 9.18409 10.9994 5.32704 1 
138 1.04275 3.82335 5.88482 1 
139 11.3989 11.4573 11.4434 1 
140 7.01591 2.52329 0.866861 1 
141 11.3348 7.94497 13.0717 1 
142 7.51684 6.32468 4.31828 1 
143 2.45726 5.18942 10.0065 1 
144 6.21127 10.7621 1.24567 1 
145 9.9014 2.89715 9.08552 1 
146 2.69723 0.703919 14.0083 1 
147 4.17322 12.748 2.45016 1 
148 12.8474 0.00419798 4.8031 1 
149 4.29465 10.3747 5.60179 1 
150 3.92351 14.4223 10.5015 1 
151 14.431 10.7424 7.87081 1 
152 6.8387 7.5782 10.4208 1 
153 1.90233 11.7015 2.83373 1 
154 10.4796 9.56471 9.73291 1 
155 8.37426 14.3414 2.87927 1 
156 2.61377 10.1185 4.04053 1 
157 14.4653 4.10524 4.01519 1 
158 14.2835 1.47861 7.58675 1 
159 4.73003 6.36913 11.3351 1 
160 3.47144 6.42367 4.44873 1 
161 4.01499 10.4842 2.59887 1 
162 10.0482 12.882 8.97043 1 
163 5.1534 1.67076 12.7315 1 
164 4.63486 8.50404 12.3434 1 
165 10.1755 7.67832 8.09389 1 
166 4.9263 14.3733 13.8197 1 
167 10.6362 9.75264 7.74266 1 
168 11.4768 9.97765 13.3429 1 
169 1.07174 4.11615 0.729598 1 
170 8.21204 5.11434 13.7928 1 
171 4.90715 1.5718 0.0875886 1 
172 4.48422 10.113 13.8667 1 
173 3.1346 9.50089 10.2943 1 
174 1.26743 8.90544 4.93412 1 
175 4.47311 11.7853 0.645644 1 
176 9.66645 11.8195 13.5134 1 
177 13.5684 11.4874 1.94463 1 
178 3.9585 11.3836 9.02367 1 
179 11.3745 1.37829 4.48315 1 
180 12.0696 4.8936 2.98538 1 
181 2.31702 7.50668 6.84486 1 
182 10.2623 7.48783 10.271 1 
183 14.3797 2.31243 10.769 1 
184 10.9387 10.6287 0.556164 1 
185 8.57691 6.71485 6.28437 1 
186 13.7635 4.35224 14.5567 1 
187 4.44683 3.11898 1.75013 1 
188 9.57156 9.05606 1.2674 1 
189 0.260131 5.63355 6.9017 1 
190 8.54922 1.43488 0.175482 1 
191 9.4023 0.7076 4.34422 1 
192 6.76289 0.872694 14.0026 1 
193 10.4345 11.7674 6.7245 1 
194 12.12 4.89661 13.3998 1 
195 5.42676 1.41563 2.27603 1 
196 12.1154 6.62138 10.8492 1 
197 8.32052 14.0468 9.14138 1 
198 13.2706 0.484258 14.4303 1 
199 9.46586 7.86718 13.832 1 
200 3.81381 14.517 0.966774 1 
ITEM: TIMESTEP
20000
ITEM: NUMBER OF ATOMS
200
ITEM: BOX BOUNDS xy xz yz pp pp pp
0.0000000000000000e+00 1.4930861999999999e+01 2.9276199999999974e-01
0.0000000000000000e+00 1.4638100000000000e+01 0.0000000000000000e+00
0.0000000000000000e+00 1.4638100000000000e+01 0.0000000000000000e+00
ITEM: ATOMS id x y z radius 
1 0.491374 1.63037 13.453 1.4 
2 12.671 3.8524 5.83632 1.4 
3 13.6689 12.9212 6.40606 1.4 
4 8.5227 4.50627 1.79671 1.4 
5 6.17791 13.8322 1.31543 1.4 
6 12.1628 11.6222 9.10758 1.4 
7 2.39829 10.4007 0.854385 1.4 
8 4.87807 12.7174 5.97233 1.4 
9 8.54913 10.8036 9.05126 1.4 
10 14.0068 5.88055 1.95133 1.4 
11 10.4842 2.33059 6.80555 1.4 
12 0.446926 11.1796 4.69895 1.4 
13 1.55922 14.0631 5.76212 1.4 
14 1.91355 3.63757 11.8219 1.4 
15 3.39817 3.47064 14.2452 1.4 
16 7.52049 3.0463 8.67435 1.4 
17 6.64241 12.2179 13.6011 1.4 
18 8.61487 12.6151 11.2655 1.4 
19 7.37247 4.2972 5.78633 1.4 
20 13.6909 2.27804 1.64765 1.4 
21 14.6441 1.83323 4.82052 1.4 
22 6.68279 10.4286 6.37527 1.4 
23 4.07723 3.71272 5.20672 1.4 
24 9.85693 3.47097 4.27794 1.4 
25 7.81615 2.66634 12.7512 1.4 
26 12.502 14.2977 2.30799 1.4 
27 7.87733 9.67293 14.1795 1.4 
28 2.50809 12.8559 14.0208 1.4 
29 6.53734 11.9001 3.76776 1.4 
30 7.60163 1.53936 6.24729 1.4 
31 6.01776 4.503 14.5238 1.4 
32 9.81146 5.35764 8.95897 1.4 
33 14.6799 8.24266 6.8932 1.4 
34 10.0881 5.64553 12.306 1.4 
35 5.88178 6.81915 6.49959 1.4 
36 6.56029 14.4545 11.7677 1.4 
37 11.5835 7.53461 0.891634 1.4 
38 4.30621 12.2443 11.4517 1.4 
39 8.53923 12.0167 1.25156 1.4 
40 2.47128 7.75523 2.7235 1.4 
41 9.99326 8.75788 5.64792 1.4 
42 13.9342 13.8188 9.08484 1.4 
43 2.75004 5.15726 7.31835 1.4 
44 0.866824 3.76779 8.9193 1.4 
45 1.54222 7.82574 14.5944 1.4 
46 11.3407 0.820177 9.0745 1.4 
47 1.482 0.971471 9.41029 1.4 
48 13.5692 9.60112 14.576 1.4 
49 12.4082 6.64764 5.04821 1.4 
50 7.83779 7.28909 1.46464 1.4 
51 4.70218 3.98793 11.7781 1.4 
52 1.85478 1.81456 1.3976 1.4 
53 6.08917 0.625398 8.47487 1.4 
54 5.14884 8.6087 1.0511 1.4 
55 2.01486 10.6872 12.2472 1.4 
56 2.57309 4.41487 2.60793 1.4 
57 9.53033 9.73605 11.9185 1.4 
58 8.34378 9.67767 3.21281 1.4 
59 9.50315 1.00021 11.2298 1.4 
60 14.3063 9.01479 2.79648 1.4 
61 10.1636 3.58014 14.2222 1.4 
62 14.1408 11.6717 11.4767 1.4 
63 11.0787 14.0883 6.0069 1.4 
64 6.1969 3.4881 3.37576 1.4 
65 0.941355 6.16325 4.61307 1.4 
66 2.43944 11.4257 6.67967 1.4 
67 10.8593 0.501317 14.1369 1.4 
68 6.30392 12.456 8.48121 1.4 
69 5.48445 9.52378 9.61856 1.4 
70 2.54322 1.86474 6.95266 1.4 
71 0.631125 14.383 2.93194 1.4 
72 10.5653 12.5434 3.6696 1.4 
73 12.6535 3.86054 8.64915 1.4 
74 2.0625 7.52523 11.8266 1.4 
75 13.8469 6.54491 12.925 1.4 
76 12.4224 10.3449 5.65808 1.4 
77 4.11835 2.38947 9.47634 1.4 
78 5.24481 8.56722 3.88846 1.4 
79 1.42942 13.9958 11.6908 1.4 
80 3.50939 13.6537 8.27743 1.4 
81 0.895191 9.22769 9.46177 1.4 
82 12.1444 12.5689 13.55 1.4 
83 14.7288 6.51104 9.36728 1.4 
84 5.16137 5.04358 8.77587 1.4 
85 12.9695 8.86835 11.1408 1.4 
86 8.08368 13.2931 5.93452 1.4 
87 11.8207 2.73479 11.6291 1.4 
88 1.74885 11.978 9.75555 1.4 
89 3.36566 0.310364 3.3096 1.4 
90 7.77773 8.1503 8.2616 1.4 
91 13.1015 0.198328 11.6934 1.4 
92 6.59982 7.11348 13.5529 1.4 
93 10.0504 6.53089 3.0544 1.4 
94 10.2002 1.63516 2.01131 1.4 
95 12.3724 6.71916 7.85889 1.4 
96 4.96973 5.81657 2.18661 1.4 
97 6.0989 0.165809 4.24345 1.4 
98 11.4596 9.82088 2.76342 1.4 
99 3.34867 7.38576 9.16605 1.4 
100 7.27425 5.32864 11.4972 1.4 
101 2.28996 2.33776 4.15539 1 
102 8.75498 13.7708 13.8249 1 
103 11.9271 5.13801 0.924486 1 
104 3.36176 8.45384 5.43207 1 
105 5.63022 2.76745 6.95808 1 
106 4.79217 1.22654 5.96408 1 
107 2.44237 13.3278 1.76264 1 
108 9.76522 6.01496 0.323491 1 
109 1.27849 5.18405 13.5537 1 
110 11.2854 12.4528 1.37124 1 
111 10.4544 5.4756 6.06889 1 
112 12.8774 2.50805 13.824 1 
113 3.32471 5.82814 0.427886 1 
114 0.354997 11.6819 0.421273 1 
115 8.87764 3.68043 10.6313 1 
116 7.68723 8.18258 5.09009 1 
117 6.38033 2.25981 10.8137 1 
118 13.2869 4.70719 10.8042 1 
119 2.91816 9.66865 8.24731 1 
120 14.2747 3.91412 12.5874 1 
121 11.0032 13.5464 10.8838 1 
122 13.1177 12.2495 3.73303 1 
123 8.49888 7.41736 11.7829 1 
124 9.92004 14.0427 1.29544 1 
125 6.95322 9.31327 11.5579 1 
126 14.7836 13.2196 13.6087 1 
127 4.23945 6.55895 13.2952 1 
128 7.48394 5.69912 8.48352 1 
129 2.90704 1.40009 11.8226 1 
130 12.6426 1.28449 6.37864 1 
131 12.3077 2.9165 3.56127 1 
132 4.58876 8.88593 6.98588 1 
133 3.19909 12.3702 4.27633 1 
134 9.08413 0.740918 7.95746 1 
135 0.905389 14.2818 0.534229 1 
136 7.9246 1.72559 2.7949 1 
137 9.26728 11.0216 5.31838 1 
138 1.06135 3.82335 5.88482 1 
139 11.4552 11.4592 11.4459 1 
140 7.02001 2.52835 0.869355 1 
141 11.3774 7.93922 13.0874 1 
142 7.52524 6.31878 4.3347 1 
143 2.4731 5.18254 10.0101 1 
144 6.32095 10.7271 1.20507 1 
145 9.90538 2.91403 9.06043 1 
146 2.68401 0.701273 13.9979 1 
147 4.24238 12.7476 2.44712 1 
148 13.0857 14.636 4.80801 1 
149 4.35738 10.3717 5.60677 1 
150 3.99789 14.4277 10.4972 1 
151 14.4859 10.755 7.87255 1 
152 6.85904 7.57171 10.419 1 
153 1.95957 11.6941 2.84321 1 
154 10.5306 9.58871 9.73759 1 
155 8.44591 14.3346 2.88022 1 
156 2.6856 10.0748 4.03447 1 
157 14.4802 4.11013 4.02522 1 
158 14.2907 1.47861 7.58675 1 
159 4.7643 6.3693 11.3333 1 
160 3.48594 6.41896 4.45148 1 
161 4.06935 10.4591 2.5768 1 
162 10.0997 12.9019 8.98191 1 
163 5.09812 1.67316 12.7529 1 
164 4.67623 8.50404 12.3434 1 
165 10.2168 7.75168 8.08735 1 
166 4.98412 14.39 13.8237 1 
167 10.6814 9.73565 7.74266 1 
168 11.5215 9.99795 13.3397 1 
169 1.08977 4.1013 0.747278 1 
170 8.22674 5.10436 13.7827 1 
171 4.92317 1.57992 0.116415 1 
172 4.53214 10.115 13.8643 1 
173 3.17355 9.49695 10.294 1 
174 1.29801 8.91663 4.94564 1 
175 4.53045 11.7853 0.645644 1 
176 9.72396 11.8195 13.5134 1 
177 13.6292 11.5095 1.93838 1 
178 4.00306 11.3772 9.02718 1 
179 11.3526 1.39743 4.48775 1 
180 12.0832 4.8511 2.95901 1 
181 2.33557 7.48481 6.84907 1 
182 10.2987 7.48783 10.271 1 
183 14.391 2.31243 10.769 1 
184 10.9875 10.6365 0.556163 1 
185 8.60958 6.71485 6.28437 1 
186 13.7852 4.35238 14.5539 1 
187 4.46701 3.13414 1.74759 1 
188 9.59693 9.05529 1.26278 1 
189 0.311036 5.64364 6.90416 1 
190 8.54074 1.41003 0.198158 1 
191 9.40574 0.7076 4.34422 1 
192 6.75837 0.863966 14.0032 1 
193 10.4909 11.7604 6.75468 1 
194 12.1246 4.92745 13.4248 1 
195 5.43714 1.42692 2.25987 1 
196 12.1906 6.6089 10.8141 1 
197 8.42367 14.0579 9.12564 1 
198 13.2575 0.503564 14.4495 1 
199 9.50241 7.88423 13.8305 1 
200 3.88958 14.4807 0.966343 1 
ITEM: TIMESTEP
30000
ITEM: NUMBER OF ATOMS
200
ITEM: BOX BOUNDS xy xz yz pp pp pp
0.0000000000000000e+00 1.5077242999999999e+01 4.3914299999999962e-01
0.0000000000000000e+00 1.4638100000000000e+01 0.0000000000000000e+00
0.0000000000000000e+00 1.4638100000000000e+01 0.0000000000000000e+00
ITEM: ATOMS id x y z radius 
1 0.49356 1.61525 13.4597 1.4 
2 12.6544 3.87566 5.82802 1.4 
3 13.7344 12.9117 6.41727 1.4 
4 8.54083 4.52012 1.79642 1.4 
5 6.28066 13.8261 1.31666 1.4 
6 12.2281 11.6162 9.10835 1.4 
7 2.44974 10.395 0.856493 1.4 
8 4.94689 12.7131 5.97311 1.4 
9 8.60257 10.7958 9.0556 1.4 
10 14.0283 5.89577 1.97062 1.4 
11 10.4945 2.31372 6.79574 1.4 
12 0.506233 11.1806 4.69599 1.4 
13 1.62021 14.0545 5.75816 1.4 
14 1.9298 3.63417 11.8216 1.4 
15 3.41617 3.47177 14.2443 1.4 
16 7.52462 3.03821 8.6773 1.4 
17 6.69562 12.2179 13.6011 1.4 
18 8.68216 12.6037 11.2515 1.4 
19 7.39814 4.29735 5.78759 1.4 
20 13.703 2.2746 1.64641 1.4 
21 14.6349 1.83567 4.82637 1.4 
22 6.73619 10.4294 6.37438 1.4 
23 4.08774 3.7172 5.2026 1.4 
24 9.87907 3.46956 4.2759 1.4 
25 7.81595 2.66803 12.7631 1.4 
26 12.5895 14.2915 2.29866 1.4 
27 7.91092 9.66668 14.1647 1.4 
28 2.58589 12.8512 14.0287 1.4 
29 6.58916 11.9001 3.76776 1.4 
30 7.59975 1.53723 6.24759 1.4 
31 6.0368 4.50633 14.5161 1.4 
32 9.84017 5.36999 8.95862 1.4 
33 14.7201 8.23578 6.89032 1.4 
34 10.1143 5.63957 12.3027 1.4 
35 5.91148 6.81915 6.49959 1.4 
36 6.63989 14.4541 11.7621 1.4 
37 11.6223 7.53037 0.888093 1.4 
38 4.35984 12.2468 11.4594 1.4 
39 8.60454 12.0376 1.28016 1.4 
40 2.51204 7.75682 2.72241 1.4 
41 10.0358 8.75958 5.6514 1.4 
42 14.0291 13.7893 9.09794 1.4 
43 2.77757 5.13995 7.31457 1.4 
44 0.883367 3.77461 8.92022 1.4 
45 1.56798 7.83583 14.5918 1.4 
46 11.3238 0.832297 9.07075 1.4 
47 1.47226 0.981451 9.42049 1.4 
48 13.6201 9.58281 14.5731 1.4 
49 12.4363 6.62797 5.05503 1.4 
50 7.87113 7.29189 1.47051 1.4 
51 4.71806 3.98731 11.776 1.4 
52 1.8622 1.81482 1.39518 1.4 
53 6.07293 0.62856 8.4681 1.4 
54 5.16249 8.63088 1.05067 1.4 
55 2.05595 10.6893 12.2576 1.4 
56 2.59889 4.41939 2.61651 1.4 
57 9.57789 9.73917 11.9143 1.4 
58 8.39384 9.67776 3.21398 1.4 
59 9.49526 1.00786 11.229 1.4 
60 14.3456 9.01479 2.79648 1.4 
61 10.1803 3.58461 14.2301 1.4 
62 14.1888 11.6594 11.4472 1.4 
63 11.168 14.0937 5.99038 1.4 
64 6.21491 3.48827 3.38075 1.4 
65 0.974258 6.1661 4.60865 1.4 
66 2.50068 11.4195 6.67527 1.4 
67 10.8488 0.515883 14.1315 1.4 
68 6.36785 12.4613 8.49293 1.4 
69 5.54041 9.51722 9.61998 1.4 
70 2.52981 1.86773 6.95564 1.4 
71 0.713289 14.3871 2.92618 1.4 
72 10.6313 12.5279 3.67488 1.4 
73 12.6963 3.86239 8.64103 1.4 
74 2.10359 7.51514 11.8291 1.4 
75 13.8998 6.52589 12.9258 1.4 
76 12.4674 10.3449 5.65808 1.4 
77 4.11731 2.40326 9.47175 1.4 
78 5.28396 8.58924 3.883 1.4 
79 1.53232 13.9953 11.6897 1.4 
80 3.589 13.6425 8.28012 1.4 
81 0.946759 9.22737 9.46219 1.4 
82 12.2052 12.5593 13.5277 1.4 
83 14.7635 6.51455 9.36138 1.4 
84 5.17757 5.05036 8.79216 1.4 
85 12.993 8.87226 11.1541 1.4 
86 8.1699 13.2705 5.93862 1.4 
87 11.8284 2.75392 11.6193 1.4 
88 1.82027 11.9706 9.75746 1.4 
89 3.32673 0.307367 3.30939 1.4 
90 7.82042 8.14769 8.26429 1.4 
91 13.0589 0.199879 11.7009 1.4 
92 6.63531 7.11938 13.559 1.4 
93 10.0869 6.53282 3.05353 1.4 
94 10.1674 1.64391 2.00462 1.4 
95 12.4 6.72674 7.86476 1.4 
96 4.99049 5.82452 2.17666 1.4 
97 6.07814 0.178262 4.24265 1.4 
98 11.5069 9.81653 2.76342 1.4 
99 3.37696 7.38676 9.15388 1.4 
100 7.29956 5.33144 11.5028 1.4 
101 2.28236 2.33796 4.16753 1 
102 8.84761 13.7708 13.8249 1 
103 11.9651 5.13434 0.924552 1 
104 3.42081 8.43139 5.44407 1 
105 5.63737 2.76738 6.97693 1 
106 4.78555 1.2404 5.97277 1 
107 2.52788 13.3244 1.76897 1 
108 9.80437 6.01037 0.323868 1 
109 1.30612 5.18519 13.5533 1 
110 11.3533 12.4524 1.37641 1 
111 10.4913 5.4756 6.06889 1 
112 12.8916 2.52752 13.8131 1 
113 3.34936 5.82902 0.414632 1 
114 0.425003 11.6901 0.415506 1 
115 8.89447 3.68159 10.622 1 
116 7.73211 8.18726 5.08012 1 
117 6.3919 2.27281 10.8145 1 
118 13.3314 4.69943 10.7993 1 
119 2.96801 9.65737 8.24086 1 
120 14.2918 3.91109 12.5884 1 
121 11.1286 13.5469 10.8813 1 
122 13.1796 12.2509 3.73014 1 
123 8.54106 7.41581 11.7577 1 
124 10.035 14.0551 1.27444 1 
125 7.01318 9.29693 11.5551 1 
126 14.8683 13.2319 13.6021 1 
127 4.27738 6.56495 13.2924 1 
128 7.50487 5.70174 8.51554 1 
129 2.91855 1.3952 11.8215 1 
130 12.6582 1.27688 6.38182 1 
131 12.3199 2.908 3.56019 1 
132 4.63753 8.88862 6.9994 1 
133 3.27081 12.3782 4.27328 1 
134 9.08534 0.731467 7.95163 1 
135 0.991543 14.2939 0.528745 1 
136 7.90159 1.72027 2.81544 1 
137 9.35425 11.0365 5.31776 1 
138 1.08707 3.82335 5.88482 1 
139 11.5316 11.4619 11.4491 1 
140 7.02789 2.53117 0.871206 1 
141 11.4345 7.93626 13.0965 1 
142 7.55441 6.31683 4.34344 1 
143 2.498 5.17905 10.0119 1 
144 6.42674 10.6991 1.17375 1 
145 9.91454 2.92044 9.04418 1 
146 2.68492 0.69147 13.9903 1 
147 4.33088 12.7425 2.44536 1 
148 13.1892 14.6277 4.80916 1 
149 4.41886 10.3671 5.60894 1 
150 4.08836 14.4297 10.4929 1 
151 14.5561 10.7651 7.87246 1 
152 6.89441 7.56732 10.4178 1 
153 2.03001 11.6932 2.84633 1 
154 10.5934 9.59694 9.73953 1 
155 8.54656 14.3251 2.88295 1 
156 2.75994 10.0485 4.03309 1 
157 14.5028 4.11525 4.03218 1 
158 14.3023 1.47815 7.58789 1 
159 4.80621 6.3684 11.3324 1 
160 3.51596 6.41684 4.45387 1 
161 4.13485 10.4397 2.56561 1 
162 10.1849 12.9112 8.98513 1 
163 5.06421 1.68108 12.7687 1 
164 4.73343 8.50404 12.3434 1 
165 10.2574 7.78702 8.08668 1 
166 5.07313 14.4007 13.8263 1 
167 10.7419 9.73688 7.74269 1 
168 11.5816 10.0134 13.3351 1 
169 1.11436 4.09318 0.759014 1 
170 8.24895 5.09865 13.7759 1 
171 4.93384 1.58544 0.135427 1 
172 4.59217 10.1286 13.8482 1 
173 3.22813 9.49456 10.2919 1 
174 1.3521 8.91714 4.95265 1 
175 4.60972 11.7853 0.645644 1 
176 9.80346 11.8195 13.5134 1 
177 13.7051 11.5203 1.93584 1 
178 4.07306 11.3721 9.03012 1 
179 11.3354 1.41055 4.49055 1 
180 12.1038 4.83842 2.94702 1 
181 2.3737 7.47019 6.85107 1 
182 10.3491 7.48783 10.271 1 
183 14.4065 2.31243 10.769 1 
184 11.0514 10.6401 0.555656 1 
185 8.65475 6.71485 6.28437 1 
186 13.8148 4.35247 14.5521 1 
187 4.48934 3.1445 1.74578 1 
188 9.64375 9.05678 1.26139 1 
189 0.364127 5.64928 6.90576 1 
190 8.53711 1.39512 0.2044 1 
191 9.4105 0.7076 4.34422 1 
192 6.75708 0.858537 14.0045 1 
193 10.5699 11.7557 6.7714 1 
194 12.1471 4.94648 13.4426 1 
195 5.44968 1.43282 2.24799 1 
196 12.2604 6.60303 10.7898 1 
197 8.53414 14.0762 9.12153 1 
198 13.2467 0.513271 14.4597 1 
199 9.55641 7.89301 13.833 1 
200 3.9883 14.459 0.96916 1 
ITEM: TIMESTEP
40000
ITEM: NUMBER OF ATOMS
200
ITEM: BOX BOUNDS xy xz yz pp pp pp
0.0000000000000000e+00 1.5223623999999999e+01 5.8552399999999949e-01
0.0000000000000000e+00 1.4638100000000000e+01 0.0000000000000000e+00
0.0000000000000000e+00 1.4638100000000000e+01 0.0000000000000000e+00
ITEM: ATOMS id x y z radius 
1 0.493576 1.60501 13.4618 1.4 
2 12.651 3.88663 5.82329 1.4 
3 13.8176 12.9028 6.42576 1.4 
4 8.56684 4.53194 1.79679 1.4 
5 6.39589 13.8187 1.31912 1.4 
6 12.3184 11.6044 9.10744 1.4 
7 2.51742 10.3887 0.85797 1.4 
8 5.0326 12.706 5.97127 1.4 
9 8.66809 10.7857 9.05409 1.4 
10 14.0581 5.90571 1.98473 1.4 
11 10.5024 2.30607 6.78789 1.4 
12 0.579854 11.1778 4.6929 1.4 
13 1.70322 14.0411 5.75799 1.4 
14 1.95214 3.63327 11.8208 1.4 
15 3.43959 3.47498 14.2429 1.4 
16 7.53288 3.03016 8.67833 1.4 
17 6.76297 12.2179 13.6011 1.4 
18 8.76538 12.5954 11.2448 1.4 
19 7.42536 4.2969 5.78821 1.4 
20 13.7123 2.27416 1.64344 1.4 
21 14.6259 1.8418 4.8279 1.4 
22 6.80564 10.4301 6.37242 1.4 
23 4.10463 3.72147 5.19925 1.4 
24 9.9018 3.46964 4.26946 1.4 
25 7.81814 2.67153 12.7742 1.4 
26 12.6942 14.2828 2.29329 1.4 
27 7.96402 9.65875 14.1502 1.4 
28 2.67856 12.8446 14.0324 1.4 
29 6.65476 11.9001 3.76776 1.4 
30 7.60199 1.53494 6.24709 1.4 
31 6.06174 4.51049 14.5096 1.4 
32 9.87302 5.37788 8.95943 1.4 
33 14.7725 8.23201 6.88556 1.4 
34 10.148 5.63485 12.3017 1.4 
35 5.94907 6.81915 6.49959 1.4 
36 6.73283 14.4554 11.7584 1.4 
37 11.6678 7.52742 0.886314 1.4 
38 4.42977 12.2473 11.4659 1.4 
39 8.68115 12.0543 1.3029 1.4 
40 2.56075 7.75811 2.72162 1.4 
41 10.0919 8.76132 5.65631 1.4 
42 14.1388 13.762 9.10823 1.4 
43 2.81282 5.12896 7.31239 1.4 
44 0.911862 3.77812 8.92159 1.4 
45 1.60497 7.84335 14.5899 1.4 
46 11.3128 0.835621 9.07279 1.4 
47 1.45689 0.994315 9.43112 1.4 
48 13.6824 9.56774 14.5713 1.4 
49 12.4709 6.61792 5.05887 1.4 
50 7.91231 7.29512 1.47466 1.4 
51 4.74049 3.98594 11.7736 1.4 
52 1.86889 1.8152 1.38831 1.4 
53 6.05638 0.63528 8.45956 1.4 
54 5.19407 8.6513 1.05021 1.4 
55 2.11459 10.6895 12.2626 1.4 
56 2.62852 4.42545 2.62212 1.4 
57 9.63889 9.74025 11.9061 1.4 
58 8.45432 9.67793 3.21441 1.4 
59 9.48895 1.01235 11.2317 1.4 
60 14.3953 9.01479 2.79648 1.4 
61 10.2014 3.58705 14.2367 1.4 
62 14.2536 11.653 11.4255 1.4 
63 11.2723 14.0967 5.98177 1.4 
64 6.23673 3.48892 3.38365 1.4 
65 1.01373 6.16789 4.60558 1.4 
66 2.57174 11.4152 6.67454 1.4 
67 10.8396 0.528772 14.1297 1.4 
68 6.4469 12.4707 8.49909 1.4 
69 5.60805 9.50561 9.62233 1.4 
70 2.52037 1.86929 6.96336 1.4 
71 0.815965 14.3902 2.92433 1.4 
72 10.7158 12.5171 3.67821 1.4 
73 12.7261 3.86447 8.63543 1.4 
74 2.15123 7.50762 11.8311 1.4 
75 13.9545 6.50987 12.9268 1.4 
76 12.5245 10.3449 5.65808 1.4 
77 4.1158 2.41963 9.47007 1.4 
78 5.33498 8.60174 3.88098 1.4 
79 1.64317 13.9957 11.6889 1.4 
80 3.68298 13.6336 8.28221 1.4 
81 1.00976 9.22639 9.46198 1.4 
82 12.2864 12.5552 13.517 1.4 
83 14.8066 6.51836 9.35796 1.4 
84 5.20415 5.05434 8.80471 1.4 
85 13.0313 8.87469 11.1642 1.4 
86 8.26924 13.2514 5.94313 1.4 
87 11.8379 2.77376 11.6112 1.4 
88 1.90265 11.9667 9.75756 1.4 
89 3.30505 0.301121 3.31534 1.4 
90 7.87187 8.14553 8.2661 1.4 
91 13.024 0.20152 11.7071 1.4 
92 6.67761 7.12387 13.5629 1.4 
93 10.13 6.53314 3.05247 1.4 
94 10.1471 1.65286 2.00257 1.4 
95 12.4389 6.731 7.86832 1.4 
96 5.01885 5.82964 2.17077 1.4 
97 6.06219 0.185066 4.24297 1.4 
98 11.5656 9.81283 2.76357 1.4 
99 3.41628 7.38664 9.14417 1.4 
100 7.33199 5.33399 11.5054 1.4 
101 2.27808 2.33825 4.17567 1 
102 8.95657 13.7708 13.8249 1 
103 12.0073 5.13158 0.922867 1 
104 3.48324 8.42344 5.45242 1 
105 5.64793 2.77016 6.98728 1 